V -t * -v 1.0a5 -a 0
A -t * -n 1 -p 0 -o 0x7fffffff -c 30 -a 1
A -t * -h 1 -m 1073741823 -s 0
n -t * -a 0 -s 0 -S UP -v circle -c black -i black
n -t * -a 1 -s 1 -S UP -v circle -c black -i black
n -t * -a 2 -s 2 -S UP -v circle -c black -i black
l -t * -s 0 -d 1 -S UP -r 1000000 -D 0.059999999999999998 -c black
l -t * -s 1 -d 2 -S UP -r 500000 -D 0.059999999999999998 -c black
q -t * -s 2 -d 1 -a 0.2
q -t * -s 1 -d 2 -a 0.2
q -t * -s 1 -d 0 -a 0.5
q -t * -s 0 -d 1 -a 0.5
+ -t 0.2 -s 0 -d 1 -p tcp -e 40 -c 0 -i 0 -a 0 -x {0.0 2.0 0 ------- null}
- -t 0.2 -s 0 -d 1 -p tcp -e 40 -c 0 -i 0 -a 0 -x {0.0 2.0 0 ------- null}
h -t 0.2 -s 0 -d 1 -p tcp -e 40 -c 0 -i 0 -a 0 -x {0.0 2.0 -1 ------- null}
r -t 0.26032 -s 0 -d 1 -p tcp -e 40 -c 0 -i 0 -a 0 -x {0.0 2.0 0 ------- null}
+ -t 0.26032 -s 1 -d 2 -p tcp -e 40 -c 0 -i 0 -a 0 -x {0.0 2.0 0 ------- null}
- -t 0.26032 -s 1 -d 2 -p tcp -e 40 -c 0 -i 0 -a 0 -x {0.0 2.0 0 ------- null}
h -t 0.26032 -s 1 -d 2 -p tcp -e 40 -c 0 -i 0 -a 0 -x {0.0 2.0 -1 ------- null}
r -t 0.32096 -s 1 -d 2 -p tcp -e 40 -c 0 -i 0 -a 0 -x {0.0 2.0 0 ------- null}
+ -t 0.32096 -s 2 -d 1 -p ack -e 40 -c 0 -i 1 -a 0 -x {2.0 0.0 0 ------- null}
- -t 0.32096 -s 2 -d 1 -p ack -e 40 -c 0 -i 1 -a 0 -x {2.0 0.0 0 ------- null}
h -t 0.32096 -s 2 -d 1 -p ack -e 40 -c 0 -i 1 -a 0 -x {2.0 0.0 -1 ------- null}
r -t 0.3816 -s 2 -d 1 -p ack -e 40 -c 0 -i 1 -a 0 -x {2.0 0.0 0 ------- null}
+ -t 0.3816 -s 1 -d 0 -p ack -e 40 -c 0 -i 1 -a 0 -x {2.0 0.0 0 ------- null}
- -t 0.3816 -s 1 -d 0 -p ack -e 40 -c 0 -i 1 -a 0 -x {2.0 0.0 0 ------- null}
h -t 0.3816 -s 1 -d 0 -p ack -e 40 -c 0 -i 1 -a 0 -x {2.0 0.0 -1 ------- null}
r -t 0.44192 -s 1 -d 0 -p ack -e 40 -c 0 -i 1 -a 0 -x {2.0 0.0 0 ------- null}
+ -t 0.44192 -s 0 -d 1 -p tcp -e 1540 -c 0 -i 2 -a 0 -x {0.0 2.0 1 ------- null}
- -t 0.44192 -s 0 -d 1 -p tcp -e 1540 -c 0 -i 2 -a 0 -x {0.0 2.0 1 ------- null}
h -t 0.44192 -s 0 -d 1 -p tcp -e 1540 -c 0 -i 2 -a 0 -x {0.0 2.0 -1 ------- null}
+ -t 0.44192 -s 0 -d 1 -p tcp -e 1540 -c 0 -i 3 -a 0 -x {0.0 2.0 2 ------- null}
- -t 0.45424 -s 0 -d 1 -p tcp -e 1540 -c 0 -i 3 -a 0 -x {0.0 2.0 2 ------- null}
h -t 0.45424 -s 0 -d 1 -p tcp -e 1540 -c 0 -i 3 -a 0 -x {0.0 2.0 -1 ------- null}
r -t 0.51424 -s 0 -d 1 -p tcp -e 1540 -c 0 -i 2 -a 0 -x {0.0 2.0 1 ------- null}
+ -t 0.51424 -s 1 -d 2 -p tcp -e 1540 -c 0 -i 2 -a 0 -x {0.0 2.0 1 ------- null}
- -t 0.51424 -s 1 -d 2 -p tcp -e 1540 -c 0 -i 2 -a 0 -x {0.0 2.0 1 ------- null}
h -t 0.51424 -s 1 -d 2 -p tcp -e 1540 -c 0 -i 2 -a 0 -x {0.0 2.0 -1 ------- null}
r -t 0.52656 -s 0 -d 1 -p tcp -e 1540 -c 0 -i 3 -a 0 -x {0.0 2.0 2 ------- null}
+ -t 0.52656 -s 1 -d 2 -p tcp -e 1540 -c 0 -i 3 -a 0 -x {0.0 2.0 2 ------- null}
- -t 0.53888 -s 1 -d 2 -p tcp -e 1540 -c 0 -i 3 -a 0 -x {0.0 2.0 2 ------- null}
h -t 0.53888 -s 1 -d 2 -p tcp -e 1540 -c 0 -i 3 -a 0 -x {0.0 2.0 -1 ------- null}
r -t 0.59888 -s 1 -d 2 -p tcp -e 1540 -c 0 -i 2 -a 0 -x {0.0 2.0 1 ------- null}
+ -t 0.59888 -s 2 -d 1 -p ack -e 40 -c 0 -i 4 -a 0 -x {2.0 0.0 1 ------- null}
- -t 0.59888 -s 2 -d 1 -p ack -e 40 -c 0 -i 4 -a 0 -x {2.0 0.0 1 ------- null}
h -t 0.59888 -s 2 -d 1 -p ack -e 40 -c 0 -i 4 -a 0 -x {2.0 0.0 -1 ------- null}
r -t 0.62352 -s 1 -d 2 -p tcp -e 1540 -c 0 -i 3 -a 0 -x {0.0 2.0 2 ------- null}
+ -t 0.62352 -s 2 -d 1 -p ack -e 40 -c 0 -i 5 -a 0 -x {2.0 0.0 2 ------- null}
- -t 0.62352 -s 2 -d 1 -p ack -e 40 -c 0 -i 5 -a 0 -x {2.0 0.0 2 ------- null}
h -t 0.62352 -s 2 -d 1 -p ack -e 40 -c 0 -i 5 -a 0 -x {2.0 0.0 -1 ------- null}
r -t 0.65952 -s 2 -d 1 -p ack -e 40 -c 0 -i 4 -a 0 -x {2.0 0.0 1 ------- null}
+ -t 0.65952 -s 1 -d 0 -p ack -e 40 -c 0 -i 4 -a 0 -x {2.0 0.0 1 ------- null}
- -t 0.65952 -s 1 -d 0 -p ack -e 40 -c 0 -i 4 -a 0 -x {2.0 0.0 1 ------- null}
h -t 0.65952 -s 1 -d 0 -p ack -e 40 -c 0 -i 4 -a 0 -x {2.0 0.0 -1 ------- null}
r -t 0.68416 -s 2 -d 1 -p ack -e 40 -c 0 -i 5 -a 0 -x {2.0 0.0 2 ------- null}
+ -t 0.68416 -s 1 -d 0 -p ack -e 40 -c 0 -i 5 -a 0 -x {2.0 0.0 2 ------- null}
- -t 0.68416 -s 1 -d 0 -p ack -e 40 -c 0 -i 5 -a 0 -x {2.0 0.0 2 ------- null}
h -t 0.68416 -s 1 -d 0 -p ack -e 40 -c 0 -i 5 -a 0 -x {2.0 0.0 -1 ------- null}
r -t 0.71984 -s 1 -d 0 -p ack -e 40 -c 0 -i 4 -a 0 -x {2.0 0.0 1 ------- null}
+ -t 0.71984 -s 0 -d 1 -p tcp -e 1540 -c 0 -i 6 -a 0 -x {0.0 2.0 3 ------- null}
- -t 0.71984 -s 0 -d 1 -p tcp -e 1540 -c 0 -i 6 -a 0 -x {0.0 2.0 3 ------- null}
h -t 0.71984 -s 0 -d 1 -p tcp -e 1540 -c 0 -i 6 -a 0 -x {0.0 2.0 -1 ------- null}
+ -t 0.71984 -s 0 -d 1 -p tcp -e 1540 -c 0 -i 7 -a 0 -x {0.0 2.0 4 ------- null}
- -t 0.73216 -s 0 -d 1 -p tcp -e 1540 -c 0 -i 7 -a 0 -x {0.0 2.0 4 ------- null}
h -t 0.73216 -s 0 -d 1 -p tcp -e 1540 -c 0 -i 7 -a 0 -x {0.0 2.0 -1 ------- null}
r -t 0.74448 -s 1 -d 0 -p ack -e 40 -c 0 -i 5 -a 0 -x {2.0 0.0 2 ------- null}
+ -t 0.74448 -s 0 -d 1 -p tcp -e 1540 -c 0 -i 8 -a 0 -x {0.0 2.0 5 ------- null}
+ -t 0.74448 -s 0 -d 1 -p tcp -e 1540 -c 0 -i 9 -a 0 -x {0.0 2.0 6 ------- null}
- -t 0.74448 -s 0 -d 1 -p tcp -e 1540 -c 0 -i 8 -a 0 -x {0.0 2.0 5 ------- null}
h -t 0.74448 -s 0 -d 1 -p tcp -e 1540 -c 0 -i 8 -a 0 -x {0.0 2.0 -1 ------- null}
- -t 0.7568 -s 0 -d 1 -p tcp -e 1540 -c 0 -i 9 -a 0 -x {0.0 2.0 6 ------- null}
h -t 0.7568 -s 0 -d 1 -p tcp -e 1540 -c 0 -i 9 -a 0 -x {0.0 2.0 -1 ------- null}
r -t 0.79216 -s 0 -d 1 -p tcp -e 1540 -c 0 -i 6 -a 0 -x {0.0 2.0 3 ------- null}
+ -t 0.79216 -s 1 -d 2 -p tcp -e 1540 -c 0 -i 6 -a 0 -x {0.0 2.0 3 ------- null}
- -t 0.79216 -s 1 -d 2 -p tcp -e 1540 -c 0 -i 6 -a 0 -x {0.0 2.0 3 ------- null}
h -t 0.79216 -s 1 -d 2 -p tcp -e 1540 -c 0 -i 6 -a 0 -x {0.0 2.0 -1 ------- null}
r -t 0.80448 -s 0 -d 1 -p tcp -e 1540 -c 0 -i 7 -a 0 -x {0.0 2.0 4 ------- null}
+ -t 0.80448 -s 1 -d 2 -p tcp -e 1540 -c 0 -i 7 -a 0 -x {0.0 2.0 4 ------- null}
r -t 0.8168 -s 0 -d 1 -p tcp -e 1540 -c 0 -i 8 -a 0 -x {0.0 2.0 5 ------- null}
+ -t 0.8168 -s 1 -d 2 -p tcp -e 1540 -c 0 -i 8 -a 0 -x {0.0 2.0 5 ------- null}
- -t 0.8168 -s 1 -d 2 -p tcp -e 1540 -c 0 -i 7 -a 0 -x {0.0 2.0 4 ------- null}
h -t 0.8168 -s 1 -d 2 -p tcp -e 1540 -c 0 -i 7 -a 0 -x {0.0 2.0 -1 ------- null}
r -t 0.82912 -s 0 -d 1 -p tcp -e 1540 -c 0 -i 9 -a 0 -x {0.0 2.0 6 ------- null}
+ -t 0.82912 -s 1 -d 2 -p tcp -e 1540 -c 0 -i 9 -a 0 -x {0.0 2.0 6 ------- null}
- -t 0.84144 -s 1 -d 2 -p tcp -e 1540 -c 0 -i 8 -a 0 -x {0.0 2.0 5 ------- null}
h -t 0.84144 -s 1 -d 2 -p tcp -e 1540 -c 0 -i 8 -a 0 -x {0.0 2.0 -1 ------- null}
- -t 0.86608 -s 1 -d 2 -p tcp -e 1540 -c 0 -i 9 -a 0 -x {0.0 2.0 6 ------- null}
h -t 0.86608 -s 1 -d 2 -p tcp -e 1540 -c 0 -i 9 -a 0 -x {0.0 2.0 -1 ------- null}
r -t 0.8768 -s 1 -d 2 -p tcp -e 1540 -c 0 -i 6 -a 0 -x {0.0 2.0 3 ------- null}
+ -t 0.8768 -s 2 -d 1 -p ack -e 40 -c 0 -i 10 -a 0 -x {2.0 0.0 3 ------- null}
- -t 0.8768 -s 2 -d 1 -p ack -e 40 -c 0 -i 10 -a 0 -x {2.0 0.0 3 ------- null}
h -t 0.8768 -s 2 -d 1 -p ack -e 40 -c 0 -i 10 -a 0 -x {2.0 0.0 -1 ------- null}
r -t 0.90144 -s 1 -d 2 -p tcp -e 1540 -c 0 -i 7 -a 0 -x {0.0 2.0 4 ------- null}
+ -t 0.90144 -s 2 -d 1 -p ack -e 40 -c 0 -i 11 -a 0 -x {2.0 0.0 4 ------- null}
- -t 0.90144 -s 2 -d 1 -p ack -e 40 -c 0 -i 11 -a 0 -x {2.0 0.0 4 ------- null}
h -t 0.90144 -s 2 -d 1 -p ack -e 40 -c 0 -i 11 -a 0 -x {2.0 0.0 -1 ------- null}
r -t 0.92608 -s 1 -d 2 -p tcp -e 1540 -c 0 -i 8 -a 0 -x {0.0 2.0 5 ------- null}
+ -t 0.92608 -s 2 -d 1 -p ack -e 40 -c 0 -i 12 -a 0 -x {2.0 0.0 5 ------- null}
- -t 0.92608 -s 2 -d 1 -p ack -e 40 -c 0 -i 12 -a 0 -x {2.0 0.0 5 ------- null}
h -t 0.92608 -s 2 -d 1 -p ack -e 40 -c 0 -i 12 -a 0 -x {2.0 0.0 -1 ------- null}
r -t 0.93744 -s 2 -d 1 -p ack -e 40 -c 0 -i 10 -a 0 -x {2.0 0.0 3 ------- null}
+ -t 0.93744 -s 1 -d 0 -p ack -e 40 -c 0 -i 10 -a 0 -x {2.0 0.0 3 ------- null}
- -t 0.93744 -s 1 -d 0 -p ack -e 40 -c 0 -i 10 -a 0 -x {2.0 0.0 3 ------- null}
h -t 0.93744 -s 1 -d 0 -p ack -e 40 -c 0 -i 10 -a 0 -x {2.0 0.0 -1 ------- null}
r -t 0.95072 -s 1 -d 2 -p tcp -e 1540 -c 0 -i 9 -a 0 -x {0.0 2.0 6 ------- null}
+ -t 0.95072 -s 2 -d 1 -p ack -e 40 -c 0 -i 13 -a 0 -x {2.0 0.0 6 ------- null}
- -t 0.95072 -s 2 -d 1 -p ack -e 40 -c 0 -i 13 -a 0 -x {2.0 0.0 6 ------- null}
h -t 0.95072 -s 2 -d 1 -p ack -e 40 -c 0 -i 13 -a 0 -x {2.0 0.0 -1 ------- null}
r -t 0.96208 -s 2 -d 1 -p ack -e 40 -c 0 -i 11 -a 0 -x {2.0 0.0 4 ------- null}
+ -t 0.96208 -s 1 -d 0 -p ack -e 40 -c 0 -i 11 -a 0 -x {2.0 0.0 4 ------- null}
- -t 0.96208 -s 1 -d 0 -p ack -e 40 -c 0 -i 11 -a 0 -x {2.0 0.0 4 ------- null}
h -t 0.96208 -s 1 -d 0 -p ack -e 40 -c 0 -i 11 -a 0 -x {2.0 0.0 -1 ------- null}
r -t 0.98672 -s 2 -d 1 -p ack -e 40 -c 0 -i 12 -a 0 -x {2.0 0.0 5 ------- null}
+ -t 0.98672 -s 1 -d 0 -p ack -e 40 -c 0 -i 12 -a 0 -x {2.0 0.0 5 ------- null}
- -t 0.98672 -s 1 -d 0 -p ack -e 40 -c 0 -i 12 -a 0 -x {2.0 0.0 5 ------- null}
h -t 0.98672 -s 1 -d 0 -p ack -e 40 -c 0 -i 12 -a 0 -x {2.0 0.0 -1 ------- null}
r -t 0.99776 -s 1 -d 0 -p ack -e 40 -c 0 -i 10 -a 0 -x {2.0 0.0 3 ------- null}
+ -t 0.99776 -s 0 -d 1 -p tcp -e 1540 -c 0 -i 14 -a 0 -x {0.0 2.0 7 ------- null}
- -t 0.99776 -s 0 -d 1 -p tcp -e 1540 -c 0 -i 14 -a 0 -x {0.0 2.0 7 ------- null}
h -t 0.99776 -s 0 -d 1 -p tcp -e 1540 -c 0 -i 14 -a 0 -x {0.0 2.0 -1 ------- null}
+ -t 0.99776 -s 0 -d 1 -p tcp -e 1540 -c 0 -i 15 -a 0 -x {0.0 2.0 8 ------- null}
- -t 1.01008 -s 0 -d 1 -p tcp -e 1540 -c 0 -i 15 -a 0 -x {0.0 2.0 8 ------- null}
h -t 1.01008 -s 0 -d 1 -p tcp -e 1540 -c 0 -i 15 -a 0 -x {0.0 2.0 -1 ------- null}
r -t 1.01136 -s 2 -d 1 -p ack -e 40 -c 0 -i 13 -a 0 -x {2.0 0.0 6 ------- null}
+ -t 1.01136 -s 1 -d 0 -p ack -e 40 -c 0 -i 13 -a 0 -x {2.0 0.0 6 ------- null}
- -t 1.01136 -s 1 -d 0 -p ack -e 40 -c 0 -i 13 -a 0 -x {2.0 0.0 6 ------- null}
h -t 1.01136 -s 1 -d 0 -p ack -e 40 -c 0 -i 13 -a 0 -x {2.0 0.0 -1 ------- null}
r -t 1.0224 -s 1 -d 0 -p ack -e 40 -c 0 -i 11 -a 0 -x {2.0 0.0 4 ------- null}
+ -t 1.0224 -s 0 -d 1 -p tcp -e 1540 -c 0 -i 16 -a 0 -x {0.0 2.0 9 ------- null}
+ -t 1.0224 -s 0 -d 1 -p tcp -e 1540 -c 0 -i 17 -a 0 -x {0.0 2.0 10 ------- null}
- -t 1.0224 -s 0 -d 1 -p tcp -e 1540 -c 0 -i 16 -a 0 -x {0.0 2.0 9 ------- null}
h -t 1.0224 -s 0 -d 1 -p tcp -e 1540 -c 0 -i 16 -a 0 -x {0.0 2.0 -1 ------- null}
- -t 1.03472 -s 0 -d 1 -p tcp -e 1540 -c 0 -i 17 -a 0 -x {0.0 2.0 10 ------- null}
h -t 1.03472 -s 0 -d 1 -p tcp -e 1540 -c 0 -i 17 -a 0 -x {0.0 2.0 -1 ------- null}
r -t 1.04704 -s 1 -d 0 -p ack -e 40 -c 0 -i 12 -a 0 -x {2.0 0.0 5 ------- null}
+ -t 1.04704 -s 0 -d 1 -p tcp -e 1540 -c 0 -i 18 -a 0 -x {0.0 2.0 11 ------- null}
+ -t 1.04704 -s 0 -d 1 -p tcp -e 1540 -c 0 -i 19 -a 0 -x {0.0 2.0 12 ------- null}
- -t 1.04704 -s 0 -d 1 -p tcp -e 1540 -c 0 -i 18 -a 0 -x {0.0 2.0 11 ------- null}
h -t 1.04704 -s 0 -d 1 -p tcp -e 1540 -c 0 -i 18 -a 0 -x {0.0 2.0 -1 ------- null}
- -t 1.05936 -s 0 -d 1 -p tcp -e 1540 -c 0 -i 19 -a 0 -x {0.0 2.0 12 ------- null}
h -t 1.05936 -s 0 -d 1 -p tcp -e 1540 -c 0 -i 19 -a 0 -x {0.0 2.0 -1 ------- null}
r -t 1.07008 -s 0 -d 1 -p tcp -e 1540 -c 0 -i 14 -a 0 -x {0.0 2.0 7 ------- null}
+ -t 1.07008 -s 1 -d 2 -p tcp -e 1540 -c 0 -i 14 -a 0 -x {0.0 2.0 7 ------- null}
- -t 1.07008 -s 1 -d 2 -p tcp -e 1540 -c 0 -i 14 -a 0 -x {0.0 2.0 7 ------- null}
h -t 1.07008 -s 1 -d 2 -p tcp -e 1540 -c 0 -i 14 -a 0 -x {0.0 2.0 -1 ------- null}
r -t 1.07168 -s 1 -d 0 -p ack -e 40 -c 0 -i 13 -a 0 -x {2.0 0.0 6 ------- null}
+ -t 1.07168 -s 0 -d 1 -p tcp -e 1540 -c 0 -i 20 -a 0 -x {0.0 2.0 13 ------- null}
+ -t 1.07168 -s 0 -d 1 -p tcp -e 1540 -c 0 -i 21 -a 0 -x {0.0 2.0 14 ------- null}
- -t 1.07168 -s 0 -d 1 -p tcp -e 1540 -c 0 -i 20 -a 0 -x {0.0 2.0 13 ------- null}
h -t 1.07168 -s 0 -d 1 -p tcp -e 1540 -c 0 -i 20 -a 0 -x {0.0 2.0 -1 ------- null}
r -t 1.0824 -s 0 -d 1 -p tcp -e 1540 -c 0 -i 15 -a 0 -x {0.0 2.0 8 ------- null}
+ -t 1.0824 -s 1 -d 2 -p tcp -e 1540 -c 0 -i 15 -a 0 -x {0.0 2.0 8 ------- null}
- -t 1.084 -s 0 -d 1 -p tcp -e 1540 -c 0 -i 21 -a 0 -x {0.0 2.0 14 ------- null}
h -t 1.084 -s 0 -d 1 -p tcp -e 1540 -c 0 -i 21 -a 0 -x {0.0 2.0 -1 ------- null}
r -t 1.09472 -s 0 -d 1 -p tcp -e 1540 -c 0 -i 16 -a 0 -x {0.0 2.0 9 ------- null}
+ -t 1.09472 -s 1 -d 2 -p tcp -e 1540 -c 0 -i 16 -a 0 -x {0.0 2.0 9 ------- null}
- -t 1.09472 -s 1 -d 2 -p tcp -e 1540 -c 0 -i 15 -a 0 -x {0.0 2.0 8 ------- null}
h -t 1.09472 -s 1 -d 2 -p tcp -e 1540 -c 0 -i 15 -a 0 -x {0.0 2.0 -1 ------- null}
r -t 1.10704 -s 0 -d 1 -p tcp -e 1540 -c 0 -i 17 -a 0 -x {0.0 2.0 10 ------- null}
+ -t 1.10704 -s 1 -d 2 -p tcp -e 1540 -c 0 -i 17 -a 0 -x {0.0 2.0 10 ------- null}
- -t 1.11936 -s 1 -d 2 -p tcp -e 1540 -c 0 -i 16 -a 0 -x {0.0 2.0 9 ------- null}
h -t 1.11936 -s 1 -d 2 -p tcp -e 1540 -c 0 -i 16 -a 0 -x {0.0 2.0 -1 ------- null}
r -t 1.11936 -s 0 -d 1 -p tcp -e 1540 -c 0 -i 18 -a 0 -x {0.0 2.0 11 ------- null}
+ -t 1.11936 -s 1 -d 2 -p tcp -e 1540 -c 0 -i 18 -a 0 -x {0.0 2.0 11 ------- null}
r -t 1.13168 -s 0 -d 1 -p tcp -e 1540 -c 0 -i 19 -a 0 -x {0.0 2.0 12 ------- null}
+ -t 1.13168 -s 1 -d 2 -p tcp -e 1540 -c 0 -i 19 -a 0 -x {0.0 2.0 12 ------- null}
- -t 1.144 -s 1 -d 2 -p tcp -e 1540 -c 0 -i 17 -a 0 -x {0.0 2.0 10 ------- null}
h -t 1.144 -s 1 -d 2 -p tcp -e 1540 -c 0 -i 17 -a 0 -x {0.0 2.0 -1 ------- null}
r -t 1.144 -s 0 -d 1 -p tcp -e 1540 -c 0 -i 20 -a 0 -x {0.0 2.0 13 ------- null}
+ -t 1.144 -s 1 -d 2 -p tcp -e 1540 -c 0 -i 20 -a 0 -x {0.0 2.0 13 ------- null}
r -t 1.15472 -s 1 -d 2 -p tcp -e 1540 -c 0 -i 14 -a 0 -x {0.0 2.0 7 ------- null}
+ -t 1.15472 -s 2 -d 1 -p ack -e 40 -c 0 -i 22 -a 0 -x {2.0 0.0 7 ------- null}
- -t 1.15472 -s 2 -d 1 -p ack -e 40 -c 0 -i 22 -a 0 -x {2.0 0.0 7 ------- null}
h -t 1.15472 -s 2 -d 1 -p ack -e 40 -c 0 -i 22 -a 0 -x {2.0 0.0 -1 ------- null}
r -t 1.15632 -s 0 -d 1 -p tcp -e 1540 -c 0 -i 21 -a 0 -x {0.0 2.0 14 ------- null}
+ -t 1.15632 -s 1 -d 2 -p tcp -e 1540 -c 0 -i 21 -a 0 -x {0.0 2.0 14 ------- null}
d -t 1.15632 -s 1 -d 2 -p tcp -e 1540 -c 0 -i 21 -a 0 -x {0.0 2.0 14 ------- null}
- -t 1.16864 -s 1 -d 2 -p tcp -e 1540 -c 0 -i 18 -a 0 -x {0.0 2.0 11 ------- null}
h -t 1.16864 -s 1 -d 2 -p tcp -e 1540 -c 0 -i 18 -a 0 -x {0.0 2.0 -1 ------- null}
r -t 1.17936 -s 1 -d 2 -p tcp -e 1540 -c 0 -i 15 -a 0 -x {0.0 2.0 8 ------- null}
+ -t 1.17936 -s 2 -d 1 -p ack -e 40 -c 0 -i 23 -a 0 -x {2.0 0.0 8 ------- null}
- -t 1.17936 -s 2 -d 1 -p ack -e 40 -c 0 -i 23 -a 0 -x {2.0 0.0 8 ------- null}
h -t 1.17936 -s 2 -d 1 -p ack -e 40 -c 0 -i 23 -a 0 -x {2.0 0.0 -1 ------- null}
- -t 1.19328 -s 1 -d 2 -p tcp -e 1540 -c 0 -i 19 -a 0 -x {0.0 2.0 12 ------- null}
h -t 1.19328 -s 1 -d 2 -p tcp -e 1540 -c 0 -i 19 -a 0 -x {0.0 2.0 -1 ------- null}
r -t 1.204 -s 1 -d 2 -p tcp -e 1540 -c 0 -i 16 -a 0 -x {0.0 2.0 9 ------- null}
+ -t 1.204 -s 2 -d 1 -p ack -e 40 -c 0 -i 24 -a 0 -x {2.0 0.0 9 ------- null}
- -t 1.204 -s 2 -d 1 -p ack -e 40 -c 0 -i 24 -a 0 -x {2.0 0.0 9 ------- null}
h -t 1.204 -s 2 -d 1 -p ack -e 40 -c 0 -i 24 -a 0 -x {2.0 0.0 -1 ------- null}
r -t 1.21536 -s 2 -d 1 -p ack -e 40 -c 0 -i 22 -a 0 -x {2.0 0.0 7 ------- null}
+ -t 1.21536 -s 1 -d 0 -p ack -e 40 -c 0 -i 22 -a 0 -x {2.0 0.0 7 ------- null}
- -t 1.21536 -s 1 -d 0 -p ack -e 40 -c 0 -i 22 -a 0 -x {2.0 0.0 7 ------- null}
h -t 1.21536 -s 1 -d 0 -p ack -e 40 -c 0 -i 22 -a 0 -x {2.0 0.0 -1 ------- null}
- -t 1.21792 -s 1 -d 2 -p tcp -e 1540 -c 0 -i 20 -a 0 -x {0.0 2.0 13 ------- null}
h -t 1.21792 -s 1 -d 2 -p tcp -e 1540 -c 0 -i 20 -a 0 -x {0.0 2.0 -1 ------- null}
r -t 1.22864 -s 1 -d 2 -p tcp -e 1540 -c 0 -i 17 -a 0 -x {0.0 2.0 10 ------- null}
+ -t 1.22864 -s 2 -d 1 -p ack -e 40 -c 0 -i 25 -a 0 -x {2.0 0.0 10 ------- null}
- -t 1.22864 -s 2 -d 1 -p ack -e 40 -c 0 -i 25 -a 0 -x {2.0 0.0 10 ------- null}
h -t 1.22864 -s 2 -d 1 -p ack -e 40 -c 0 -i 25 -a 0 -x {2.0 0.0 -1 ------- null}
r -t 1.24 -s 2 -d 1 -p ack -e 40 -c 0 -i 23 -a 0 -x {2.0 0.0 8 ------- null}
+ -t 1.24 -s 1 -d 0 -p ack -e 40 -c 0 -i 23 -a 0 -x {2.0 0.0 8 ------- null}
- -t 1.24 -s 1 -d 0 -p ack -e 40 -c 0 -i 23 -a 0 -x {2.0 0.0 8 ------- null}
h -t 1.24 -s 1 -d 0 -p ack -e 40 -c 0 -i 23 -a 0 -x {2.0 0.0 -1 ------- null}
r -t 1.25328 -s 1 -d 2 -p tcp -e 1540 -c 0 -i 18 -a 0 -x {0.0 2.0 11 ------- null}
+ -t 1.25328 -s 2 -d 1 -p ack -e 40 -c 0 -i 26 -a 0 -x {2.0 0.0 11 ------- null}
- -t 1.25328 -s 2 -d 1 -p ack -e 40 -c 0 -i 26 -a 0 -x {2.0 0.0 11 ------- null}
h -t 1.25328 -s 2 -d 1 -p ack -e 40 -c 0 -i 26 -a 0 -x {2.0 0.0 -1 ------- null}
r -t 1.26464 -s 2 -d 1 -p ack -e 40 -c 0 -i 24 -a 0 -x {2.0 0.0 9 ------- null}
+ -t 1.26464 -s 1 -d 0 -p ack -e 40 -c 0 -i 24 -a 0 -x {2.0 0.0 9 ------- null}
- -t 1.26464 -s 1 -d 0 -p ack -e 40 -c 0 -i 24 -a 0 -x {2.0 0.0 9 ------- null}
h -t 1.26464 -s 1 -d 0 -p ack -e 40 -c 0 -i 24 -a 0 -x {2.0 0.0 -1 ------- null}
r -t 1.27568 -s 1 -d 0 -p ack -e 40 -c 0 -i 22 -a 0 -x {2.0 0.0 7 ------- null}
+ -t 1.27568 -s 0 -d 1 -p tcp -e 1540 -c 0 -i 27 -a 0 -x {0.0 2.0 15 ------- null}
- -t 1.27568 -s 0 -d 1 -p tcp -e 1540 -c 0 -i 27 -a 0 -x {0.0 2.0 15 ------- null}
h -t 1.27568 -s 0 -d 1 -p tcp -e 1540 -c 0 -i 27 -a 0 -x {0.0 2.0 -1 ------- null}
+ -t 1.27568 -s 0 -d 1 -p tcp -e 1540 -c 0 -i 28 -a 0 -x {0.0 2.0 16 ------- null}
r -t 1.27792 -s 1 -d 2 -p tcp -e 1540 -c 0 -i 19 -a 0 -x {0.0 2.0 12 ------- null}
+ -t 1.27792 -s 2 -d 1 -p ack -e 40 -c 0 -i 29 -a 0 -x {2.0 0.0 12 ------- null}
- -t 1.27792 -s 2 -d 1 -p ack -e 40 -c 0 -i 29 -a 0 -x {2.0 0.0 12 ------- null}
h -t 1.27792 -s 2 -d 1 -p ack -e 40 -c 0 -i 29 -a 0 -x {2.0 0.0 -1 ------- null}
- -t 1.288 -s 0 -d 1 -p tcp -e 1540 -c 0 -i 28 -a 0 -x {0.0 2.0 16 ------- null}
h -t 1.288 -s 0 -d 1 -p tcp -e 1540 -c 0 -i 28 -a 0 -x {0.0 2.0 -1 ------- null}
r -t 1.28928 -s 2 -d 1 -p ack -e 40 -c 0 -i 25 -a 0 -x {2.0 0.0 10 ------- null}
+ -t 1.28928 -s 1 -d 0 -p ack -e 40 -c 0 -i 25 -a 0 -x {2.0 0.0 10 ------- null}
- -t 1.28928 -s 1 -d 0 -p ack -e 40 -c 0 -i 25 -a 0 -x {2.0 0.0 10 ------- null}
h -t 1.28928 -s 1 -d 0 -p ack -e 40 -c 0 -i 25 -a 0 -x {2.0 0.0 -1 ------- null}
r -t 1.30032 -s 1 -d 0 -p ack -e 40 -c 0 -i 23 -a 0 -x {2.0 0.0 8 ------- null}
+ -t 1.30032 -s 0 -d 1 -p tcp -e 1540 -c 0 -i 30 -a 0 -x {0.0 2.0 17 ------- null}
+ -t 1.30032 -s 0 -d 1 -p tcp -e 1540 -c 0 -i 31 -a 0 -x {0.0 2.0 18 ------- null}
- -t 1.30032 -s 0 -d 1 -p tcp -e 1540 -c 0 -i 30 -a 0 -x {0.0 2.0 17 ------- null}
h -t 1.30032 -s 0 -d 1 -p tcp -e 1540 -c 0 -i 30 -a 0 -x {0.0 2.0 -1 ------- null}
r -t 1.30256 -s 1 -d 2 -p tcp -e 1540 -c 0 -i 20 -a 0 -x {0.0 2.0 13 ------- null}
+ -t 1.30256 -s 2 -d 1 -p ack -e 40 -c 0 -i 32 -a 0 -x {2.0 0.0 13 ------- null}
- -t 1.30256 -s 2 -d 1 -p ack -e 40 -c 0 -i 32 -a 0 -x {2.0 0.0 13 ------- null}
h -t 1.30256 -s 2 -d 1 -p ack -e 40 -c 0 -i 32 -a 0 -x {2.0 0.0 -1 ------- null}
- -t 1.31264 -s 0 -d 1 -p tcp -e 1540 -c 0 -i 31 -a 0 -x {0.0 2.0 18 ------- null}
h -t 1.31264 -s 0 -d 1 -p tcp -e 1540 -c 0 -i 31 -a 0 -x {0.0 2.0 -1 ------- null}
r -t 1.31392 -s 2 -d 1 -p ack -e 40 -c 0 -i 26 -a 0 -x {2.0 0.0 11 ------- null}
+ -t 1.31392 -s 1 -d 0 -p ack -e 40 -c 0 -i 26 -a 0 -x {2.0 0.0 11 ------- null}
- -t 1.31392 -s 1 -d 0 -p ack -e 40 -c 0 -i 26 -a 0 -x {2.0 0.0 11 ------- null}
h -t 1.31392 -s 1 -d 0 -p ack -e 40 -c 0 -i 26 -a 0 -x {2.0 0.0 -1 ------- null}
r -t 1.32496 -s 1 -d 0 -p ack -e 40 -c 0 -i 24 -a 0 -x {2.0 0.0 9 ------- null}
+ -t 1.32496 -s 0 -d 1 -p tcp -e 1540 -c 0 -i 33 -a 0 -x {0.0 2.0 19 ------- null}
+ -t 1.32496 -s 0 -d 1 -p tcp -e 1540 -c 0 -i 34 -a 0 -x {0.0 2.0 20 ------- null}
- -t 1.32496 -s 0 -d 1 -p tcp -e 1540 -c 0 -i 33 -a 0 -x {0.0 2.0 19 ------- null}
h -t 1.32496 -s 0 -d 1 -p tcp -e 1540 -c 0 -i 33 -a 0 -x {0.0 2.0 -1 ------- null}
- -t 1.33728 -s 0 -d 1 -p tcp -e 1540 -c 0 -i 34 -a 0 -x {0.0 2.0 20 ------- null}
h -t 1.33728 -s 0 -d 1 -p tcp -e 1540 -c 0 -i 34 -a 0 -x {0.0 2.0 -1 ------- null}
r -t 1.33856 -s 2 -d 1 -p ack -e 40 -c 0 -i 29 -a 0 -x {2.0 0.0 12 ------- null}
+ -t 1.33856 -s 1 -d 0 -p ack -e 40 -c 0 -i 29 -a 0 -x {2.0 0.0 12 ------- null}
- -t 1.33856 -s 1 -d 0 -p ack -e 40 -c 0 -i 29 -a 0 -x {2.0 0.0 12 ------- null}
h -t 1.33856 -s 1 -d 0 -p ack -e 40 -c 0 -i 29 -a 0 -x {2.0 0.0 -1 ------- null}
r -t 1.348 -s 0 -d 1 -p tcp -e 1540 -c 0 -i 27 -a 0 -x {0.0 2.0 15 ------- null}
+ -t 1.348 -s 1 -d 2 -p tcp -e 1540 -c 0 -i 27 -a 0 -x {0.0 2.0 15 ------- null}
- -t 1.348 -s 1 -d 2 -p tcp -e 1540 -c 0 -i 27 -a 0 -x {0.0 2.0 15 ------- null}
h -t 1.348 -s 1 -d 2 -p tcp -e 1540 -c 0 -i 27 -a 0 -x {0.0 2.0 -1 ------- null}
r -t 1.3496 -s 1 -d 0 -p ack -e 40 -c 0 -i 25 -a 0 -x {2.0 0.0 10 ------- null}
+ -t 1.3496 -s 0 -d 1 -p tcp -e 1540 -c 0 -i 35 -a 0 -x {0.0 2.0 21 ------- null}
+ -t 1.3496 -s 0 -d 1 -p tcp -e 1540 -c 0 -i 36 -a 0 -x {0.0 2.0 22 ------- null}
- -t 1.3496 -s 0 -d 1 -p tcp -e 1540 -c 0 -i 35 -a 0 -x {0.0 2.0 21 ------- null}
h -t 1.3496 -s 0 -d 1 -p tcp -e 1540 -c 0 -i 35 -a 0 -x {0.0 2.0 -1 ------- null}
r -t 1.36032 -s 0 -d 1 -p tcp -e 1540 -c 0 -i 28 -a 0 -x {0.0 2.0 16 ------- null}
+ -t 1.36032 -s 1 -d 2 -p tcp -e 1540 -c 0 -i 28 -a 0 -x {0.0 2.0 16 ------- null}
- -t 1.36192 -s 0 -d 1 -p tcp -e 1540 -c 0 -i 36 -a 0 -x {0.0 2.0 22 ------- null}
h -t 1.36192 -s 0 -d 1 -p tcp -e 1540 -c 0 -i 36 -a 0 -x {0.0 2.0 -1 ------- null}
r -t 1.3632 -s 2 -d 1 -p ack -e 40 -c 0 -i 32 -a 0 -x {2.0 0.0 13 ------- null}
+ -t 1.3632 -s 1 -d 0 -p ack -e 40 -c 0 -i 32 -a 0 -x {2.0 0.0 13 ------- null}
- -t 1.3632 -s 1 -d 0 -p ack -e 40 -c 0 -i 32 -a 0 -x {2.0 0.0 13 ------- null}
h -t 1.3632 -s 1 -d 0 -p ack -e 40 -c 0 -i 32 -a 0 -x {2.0 0.0 -1 ------- null}
- -t 1.37264 -s 1 -d 2 -p tcp -e 1540 -c 0 -i 28 -a 0 -x {0.0 2.0 16 ------- null}
h -t 1.37264 -s 1 -d 2 -p tcp -e 1540 -c 0 -i 28 -a 0 -x {0.0 2.0 -1 ------- null}
r -t 1.37264 -s 0 -d 1 -p tcp -e 1540 -c 0 -i 30 -a 0 -x {0.0 2.0 17 ------- null}
+ -t 1.37264 -s 1 -d 2 -p tcp -e 1540 -c 0 -i 30 -a 0 -x {0.0 2.0 17 ------- null}
r -t 1.37424 -s 1 -d 0 -p ack -e 40 -c 0 -i 26 -a 0 -x {2.0 0.0 11 ------- null}
+ -t 1.37424 -s 0 -d 1 -p tcp -e 1540 -c 0 -i 37 -a 0 -x {0.0 2.0 23 ------- null}
+ -t 1.37424 -s 0 -d 1 -p tcp -e 1540 -c 0 -i 38 -a 0 -x {0.0 2.0 24 ------- null}
- -t 1.37424 -s 0 -d 1 -p tcp -e 1540 -c 0 -i 37 -a 0 -x {0.0 2.0 23 ------- null}
h -t 1.37424 -s 0 -d 1 -p tcp -e 1540 -c 0 -i 37 -a 0 -x {0.0 2.0 -1 ------- null}
r -t 1.38496 -s 0 -d 1 -p tcp -e 1540 -c 0 -i 31 -a 0 -x {0.0 2.0 18 ------- null}
+ -t 1.38496 -s 1 -d 2 -p tcp -e 1540 -c 0 -i 31 -a 0 -x {0.0 2.0 18 ------- null}
- -t 1.38656 -s 0 -d 1 -p tcp -e 1540 -c 0 -i 38 -a 0 -x {0.0 2.0 24 ------- null}
h -t 1.38656 -s 0 -d 1 -p tcp -e 1540 -c 0 -i 38 -a 0 -x {0.0 2.0 -1 ------- null}
- -t 1.39728 -s 1 -d 2 -p tcp -e 1540 -c 0 -i 30 -a 0 -x {0.0 2.0 17 ------- null}
h -t 1.39728 -s 1 -d 2 -p tcp -e 1540 -c 0 -i 30 -a 0 -x {0.0 2.0 -1 ------- null}
r -t 1.39728 -s 0 -d 1 -p tcp -e 1540 -c 0 -i 33 -a 0 -x {0.0 2.0 19 ------- null}
+ -t 1.39728 -s 1 -d 2 -p tcp -e 1540 -c 0 -i 33 -a 0 -x {0.0 2.0 19 ------- null}
r -t 1.39888 -s 1 -d 0 -p ack -e 40 -c 0 -i 29 -a 0 -x {2.0 0.0 12 ------- null}
+ -t 1.39888 -s 0 -d 1 -p tcp -e 1540 -c 0 -i 39 -a 0 -x {0.0 2.0 25 ------- null}
+ -t 1.39888 -s 0 -d 1 -p tcp -e 1540 -c 0 -i 40 -a 0 -x {0.0 2.0 26 ------- null}
- -t 1.39888 -s 0 -d 1 -p tcp -e 1540 -c 0 -i 39 -a 0 -x {0.0 2.0 25 ------- null}
h -t 1.39888 -s 0 -d 1 -p tcp -e 1540 -c 0 -i 39 -a 0 -x {0.0 2.0 -1 ------- null}
r -t 1.4096 -s 0 -d 1 -p tcp -e 1540 -c 0 -i 34 -a 0 -x {0.0 2.0 20 ------- null}
+ -t 1.4096 -s 1 -d 2 -p tcp -e 1540 -c 0 -i 34 -a 0 -x {0.0 2.0 20 ------- null}
- -t 1.4112 -s 0 -d 1 -p tcp -e 1540 -c 0 -i 40 -a 0 -x {0.0 2.0 26 ------- null}
h -t 1.4112 -s 0 -d 1 -p tcp -e 1540 -c 0 -i 40 -a 0 -x {0.0 2.0 -1 ------- null}
- -t 1.42192 -s 1 -d 2 -p tcp -e 1540 -c 0 -i 31 -a 0 -x {0.0 2.0 18 ------- null}
h -t 1.42192 -s 1 -d 2 -p tcp -e 1540 -c 0 -i 31 -a 0 -x {0.0 2.0 -1 ------- null}
r -t 1.42192 -s 0 -d 1 -p tcp -e 1540 -c 0 -i 35 -a 0 -x {0.0 2.0 21 ------- null}
+ -t 1.42192 -s 1 -d 2 -p tcp -e 1540 -c 0 -i 35 -a 0 -x {0.0 2.0 21 ------- null}
r -t 1.42352 -s 1 -d 0 -p ack -e 40 -c 0 -i 32 -a 0 -x {2.0 0.0 13 ------- null}
+ -t 1.42352 -s 0 -d 1 -p tcp -e 1540 -c 0 -i 41 -a 0 -x {0.0 2.0 27 ------- null}
+ -t 1.42352 -s 0 -d 1 -p tcp -e 1540 -c 0 -i 42 -a 0 -x {0.0 2.0 28 ------- null}
- -t 1.42352 -s 0 -d 1 -p tcp -e 1540 -c 0 -i 41 -a 0 -x {0.0 2.0 27 ------- null}
h -t 1.42352 -s 0 -d 1 -p tcp -e 1540 -c 0 -i 41 -a 0 -x {0.0 2.0 -1 ------- null}
r -t 1.43264 -s 1 -d 2 -p tcp -e 1540 -c 0 -i 27 -a 0 -x {0.0 2.0 15 ------- null}
+ -t 1.43264 -s 2 -d 1 -p ack -e 40 -c 0 -i 43 -a 0 -x {2.0 0.0 13 ------- null}
- -t 1.43264 -s 2 -d 1 -p ack -e 40 -c 0 -i 43 -a 0 -x {2.0 0.0 13 ------- null}
h -t 1.43264 -s 2 -d 1 -p ack -e 40 -c 0 -i 43 -a 0 -x {2.0 0.0 -1 ------- null}
r -t 1.43424 -s 0 -d 1 -p tcp -e 1540 -c 0 -i 36 -a 0 -x {0.0 2.0 22 ------- null}
+ -t 1.43424 -s 1 -d 2 -p tcp -e 1540 -c 0 -i 36 -a 0 -x {0.0 2.0 22 ------- null}
d -t 1.43424 -s 1 -d 2 -p tcp -e 1540 -c 0 -i 36 -a 0 -x {0.0 2.0 22 ------- null}
- -t 1.43584 -s 0 -d 1 -p tcp -e 1540 -c 0 -i 42 -a 0 -x {0.0 2.0 28 ------- null}
h -t 1.43584 -s 0 -d 1 -p tcp -e 1540 -c 0 -i 42 -a 0 -x {0.0 2.0 -1 ------- null}
- -t 1.44656 -s 1 -d 2 -p tcp -e 1540 -c 0 -i 33 -a 0 -x {0.0 2.0 19 ------- null}
h -t 1.44656 -s 1 -d 2 -p tcp -e 1540 -c 0 -i 33 -a 0 -x {0.0 2.0 -1 ------- null}
r -t 1.44656 -s 0 -d 1 -p tcp -e 1540 -c 0 -i 37 -a 0 -x {0.0 2.0 23 ------- null}
+ -t 1.44656 -s 1 -d 2 -p tcp -e 1540 -c 0 -i 37 -a 0 -x {0.0 2.0 23 ------- null}
r -t 1.45728 -s 1 -d 2 -p tcp -e 1540 -c 0 -i 28 -a 0 -x {0.0 2.0 16 ------- null}
+ -t 1.45728 -s 2 -d 1 -p ack -e 40 -c 0 -i 44 -a 0 -x {2.0 0.0 13 ------- null}
- -t 1.45728 -s 2 -d 1 -p ack -e 40 -c 0 -i 44 -a 0 -x {2.0 0.0 13 ------- null}
h -t 1.45728 -s 2 -d 1 -p ack -e 40 -c 0 -i 44 -a 0 -x {2.0 0.0 -1 ------- null}
r -t 1.45888 -s 0 -d 1 -p tcp -e 1540 -c 0 -i 38 -a 0 -x {0.0 2.0 24 ------- null}
+ -t 1.45888 -s 1 -d 2 -p tcp -e 1540 -c 0 -i 38 -a 0 -x {0.0 2.0 24 ------- null}
d -t 1.45888 -s 1 -d 2 -p tcp -e 1540 -c 0 -i 38 -a 0 -x {0.0 2.0 24 ------- null}
- -t 1.4712 -s 1 -d 2 -p tcp -e 1540 -c 0 -i 34 -a 0 -x {0.0 2.0 20 ------- null}
h -t 1.4712 -s 1 -d 2 -p tcp -e 1540 -c 0 -i 34 -a 0 -x {0.0 2.0 -1 ------- null}
r -t 1.4712 -s 0 -d 1 -p tcp -e 1540 -c 0 -i 39 -a 0 -x {0.0 2.0 25 ------- null}
+ -t 1.4712 -s 1 -d 2 -p tcp -e 1540 -c 0 -i 39 -a 0 -x {0.0 2.0 25 ------- null}
r -t 1.48192 -s 1 -d 2 -p tcp -e 1540 -c 0 -i 30 -a 0 -x {0.0 2.0 17 ------- null}
+ -t 1.48192 -s 2 -d 1 -p ack -e 40 -c 0 -i 45 -a 0 -x {2.0 0.0 13 ------- null}
- -t 1.48192 -s 2 -d 1 -p ack -e 40 -c 0 -i 45 -a 0 -x {2.0 0.0 13 ------- null}
h -t 1.48192 -s 2 -d 1 -p ack -e 40 -c 0 -i 45 -a 0 -x {2.0 0.0 -1 ------- null}
r -t 1.48352 -s 0 -d 1 -p tcp -e 1540 -c 0 -i 40 -a 0 -x {0.0 2.0 26 ------- null}
+ -t 1.48352 -s 1 -d 2 -p tcp -e 1540 -c 0 -i 40 -a 0 -x {0.0 2.0 26 ------- null}
d -t 1.48352 -s 1 -d 2 -p tcp -e 1540 -c 0 -i 40 -a 0 -x {0.0 2.0 26 ------- null}
r -t 1.49328 -s 2 -d 1 -p ack -e 40 -c 0 -i 43 -a 0 -x {2.0 0.0 13 ------- null}
+ -t 1.49328 -s 1 -d 0 -p ack -e 40 -c 0 -i 43 -a 0 -x {2.0 0.0 13 ------- null}
- -t 1.49328 -s 1 -d 0 -p ack -e 40 -c 0 -i 43 -a 0 -x {2.0 0.0 13 ------- null}
h -t 1.49328 -s 1 -d 0 -p ack -e 40 -c 0 -i 43 -a 0 -x {2.0 0.0 -1 ------- null}
- -t 1.49584 -s 1 -d 2 -p tcp -e 1540 -c 0 -i 35 -a 0 -x {0.0 2.0 21 ------- null}
h -t 1.49584 -s 1 -d 2 -p tcp -e 1540 -c 0 -i 35 -a 0 -x {0.0 2.0 -1 ------- null}
r -t 1.49584 -s 0 -d 1 -p tcp -e 1540 -c 0 -i 41 -a 0 -x {0.0 2.0 27 ------- null}
+ -t 1.49584 -s 1 -d 2 -p tcp -e 1540 -c 0 -i 41 -a 0 -x {0.0 2.0 27 ------- null}
r -t 1.50656 -s 1 -d 2 -p tcp -e 1540 -c 0 -i 31 -a 0 -x {0.0 2.0 18 ------- null}
+ -t 1.50656 -s 2 -d 1 -p ack -e 40 -c 0 -i 46 -a 0 -x {2.0 0.0 13 ------- null}
- -t 1.50656 -s 2 -d 1 -p ack -e 40 -c 0 -i 46 -a 0 -x {2.0 0.0 13 ------- null}
h -t 1.50656 -s 2 -d 1 -p ack -e 40 -c 0 -i 46 -a 0 -x {2.0 0.0 -1 ------- null}
r -t 1.50816 -s 0 -d 1 -p tcp -e 1540 -c 0 -i 42 -a 0 -x {0.0 2.0 28 ------- null}
+ -t 1.50816 -s 1 -d 2 -p tcp -e 1540 -c 0 -i 42 -a 0 -x {0.0 2.0 28 ------- null}
d -t 1.50816 -s 1 -d 2 -p tcp -e 1540 -c 0 -i 42 -a 0 -x {0.0 2.0 28 ------- null}
r -t 1.51792 -s 2 -d 1 -p ack -e 40 -c 0 -i 44 -a 0 -x {2.0 0.0 13 ------- null}
+ -t 1.51792 -s 1 -d 0 -p ack -e 40 -c 0 -i 44 -a 0 -x {2.0 0.0 13 ------- null}
- -t 1.51792 -s 1 -d 0 -p ack -e 40 -c 0 -i 44 -a 0 -x {2.0 0.0 13 ------- null}
h -t 1.51792 -s 1 -d 0 -p ack -e 40 -c 0 -i 44 -a 0 -x {2.0 0.0 -1 ------- null}
- -t 1.52048 -s 1 -d 2 -p tcp -e 1540 -c 0 -i 37 -a 0 -x {0.0 2.0 23 ------- null}
h -t 1.52048 -s 1 -d 2 -p tcp -e 1540 -c 0 -i 37 -a 0 -x {0.0 2.0 -1 ------- null}
r -t 1.5312 -s 1 -d 2 -p tcp -e 1540 -c 0 -i 33 -a 0 -x {0.0 2.0 19 ------- null}
+ -t 1.5312 -s 2 -d 1 -p ack -e 40 -c 0 -i 47 -a 0 -x {2.0 0.0 13 ------- null}
- -t 1.5312 -s 2 -d 1 -p ack -e 40 -c 0 -i 47 -a 0 -x {2.0 0.0 13 ------- null}
h -t 1.5312 -s 2 -d 1 -p ack -e 40 -c 0 -i 47 -a 0 -x {2.0 0.0 -1 ------- null}
r -t 1.54256 -s 2 -d 1 -p ack -e 40 -c 0 -i 45 -a 0 -x {2.0 0.0 13 ------- null}
+ -t 1.54256 -s 1 -d 0 -p ack -e 40 -c 0 -i 45 -a 0 -x {2.0 0.0 13 ------- null}
- -t 1.54256 -s 1 -d 0 -p ack -e 40 -c 0 -i 45 -a 0 -x {2.0 0.0 13 ------- null}
h -t 1.54256 -s 1 -d 0 -p ack -e 40 -c 0 -i 45 -a 0 -x {2.0 0.0 -1 ------- null}
- -t 1.54512 -s 1 -d 2 -p tcp -e 1540 -c 0 -i 39 -a 0 -x {0.0 2.0 25 ------- null}
h -t 1.54512 -s 1 -d 2 -p tcp -e 1540 -c 0 -i 39 -a 0 -x {0.0 2.0 -1 ------- null}
r -t 1.5536 -s 1 -d 0 -p ack -e 40 -c 0 -i 43 -a 0 -x {2.0 0.0 13 ------- null}
+ -t 1.5536 -s 0 -d 1 -p tcp -e 1540 -c 0 -i 48 -a 0 -x {0.0 2.0 29 ------- null}
- -t 1.5536 -s 0 -d 1 -p tcp -e 1540 -c 0 -i 48 -a 0 -x {0.0 2.0 29 ------- null}
h -t 1.5536 -s 0 -d 1 -p tcp -e 1540 -c 0 -i 48 -a 0 -x {0.0 2.0 -1 ------- null}
r -t 1.55584 -s 1 -d 2 -p tcp -e 1540 -c 0 -i 34 -a 0 -x {0.0 2.0 20 ------- null}
+ -t 1.55584 -s 2 -d 1 -p ack -e 40 -c 0 -i 49 -a 0 -x {2.0 0.0 13 ------- null}
- -t 1.55584 -s 2 -d 1 -p ack -e 40 -c 0 -i 49 -a 0 -x {2.0 0.0 13 ------- null}
h -t 1.55584 -s 2 -d 1 -p ack -e 40 -c 0 -i 49 -a 0 -x {2.0 0.0 -1 ------- null}
r -t 1.5672 -s 2 -d 1 -p ack -e 40 -c 0 -i 46 -a 0 -x {2.0 0.0 13 ------- null}