+ 0.2 0 1 tcp 40 ------- 0 0.0 2.0 0 0
- 0.2 0 1 tcp 40 ------- 0 0.0 2.0 0 0
r 0.26032 0 1 tcp 40 ------- 0 0.0 2.0 0 0
+ 0.26032 1 2 tcp 40 ------- 0 0.0 2.0 0 0
- 0.26032 1 2 tcp 40 ------- 0 0.0 2.0 0 0
r 0.32096 1 2 tcp 40 ------- 0 0.0 2.0 0 0
+ 0.32096 2 1 ack 40 ------- 0 2.0 0.0 0 1
- 0.32096 2 1 ack 40 ------- 0 2.0 0.0 0 1
r 0.3816 2 1 ack 40 ------- 0 2.0 0.0 0 1
+ 0.3816 1 0 ack 40 ------- 0 2.0 0.0 0 1
- 0.3816 1 0 ack 40 ------- 0 2.0 0.0 0 1
r 0.44192 1 0 ack 40 ------- 0 2.0 0.0 0 1
+ 0.44192 0 1 tcp 1540 ------- 0 0.0 2.0 1 2
- 0.44192 0 1 tcp 1540 ------- 0 0.0 2.0 1 2
+ 0.44192 0 1 tcp 1540 ------- 0 0.0 2.0 2 3
- 0.45424 0 1 tcp 1540 ------- 0 0.0 2.0 2 3
r 0.51424 0 1 tcp 1540 ------- 0 0.0 2.0 1 2
+ 0.51424 1 2 tcp 1540 ------- 0 0.0 2.0 1 2
- 0.51424 1 2 tcp 1540 ------- 0 0.0 2.0 1 2
r 0.52656 0 1 tcp 1540 ------- 0 0.0 2.0 2 3
+ 0.52656 1 2 tcp 1540 ------- 0 0.0 2.0 2 3
- 0.53888 1 2 tcp 1540 ------- 0 0.0 2.0 2 3
r 0.59888 1 2 tcp 1540 ------- 0 0.0 2.0 1 2
+ 0.59888 2 1 ack 40 ------- 0 2.0 0.0 1 4
- 0.59888 2 1 ack 40 ------- 0 2.0 0.0 1 4
r 0.62352 1 2 tcp 1540 ------- 0 0.0 2.0 2 3
+ 0.62352 2 1 ack 40 ------- 0 2.0 0.0 2 5
- 0.62352 2 1 ack 40 ------- 0 2.0 0.0 2 5
r 0.65952 2 1 ack 40 ------- 0 2.0 0.0 1 4
+ 0.65952 1 0 ack 40 ------- 0 2.0 0.0 1 4
- 0.65952 1 0 ack 40 ------- 0 2.0 0.0 1 4
r 0.68416 2 1 ack 40 ------- 0 2.0 0.0 2 5
+ 0.68416 1 0 ack 40 ------- 0 2.0 0.0 2 5
- 0.68416 1 0 ack 40 ------- 0 2.0 0.0 2 5
r 0.71984 1 0 ack 40 ------- 0 2.0 0.0 1 4
+ 0.71984 0 1 tcp 1540 ------- 0 0.0 2.0 3 6
- 0.71984 0 1 tcp 1540 ------- 0 0.0 2.0 3 6
+ 0.71984 0 1 tcp 1540 ------- 0 0.0 2.0 4 7
- 0.73216 0 1 tcp 1540 ------- 0 0.0 2.0 4 7
r 0.74448 1 0 ack 40 ------- 0 2.0 0.0 2 5
+ 0.74448 0 1 tcp 1540 ------- 0 0.0 2.0 5 8
+ 0.74448 0 1 tcp 1540 ------- 0 0.0 2.0 6 9
- 0.74448 0 1 tcp 1540 ------- 0 0.0 2.0 5 8
- 0.7568 0 1 tcp 1540 ------- 0 0.0 2.0 6 9
r 0.79216 0 1 tcp 1540 ------- 0 0.0 2.0 3 6
+ 0.79216 1 2 tcp 1540 ------- 0 0.0 2.0 3 6
- 0.79216 1 2 tcp 1540 ------- 0 0.0 2.0 3 6
r 0.80448 0 1 tcp 1540 ------- 0 0.0 2.0 4 7
+ 0.80448 1 2 tcp 1540 ------- 0 0.0 2.0 4 7
r 0.8168 0 1 tcp 1540 ------- 0 0.0 2.0 5 8
+ 0.8168 1 2 tcp 1540 ------- 0 0.0 2.0 5 8
- 0.8168 1 2 tcp 1540 ------- 0 0.0 2.0 4 7
r 0.82912 0 1 tcp 1540 ------- 0 0.0 2.0 6 9
+ 0.82912 1 2 tcp 1540 ------- 0 0.0 2.0 6 9
- 0.84144 1 2 tcp 1540 ------- 0 0.0 2.0 5 8
- 0.86608 1 2 tcp 1540 ------- 0 0.0 2.0 6 9
r 0.8768 1 2 tcp 1540 ------- 0 0.0 2.0 3 6
+ 0.8768 2 1 ack 40 ------- 0 2.0 0.0 3 10
- 0.8768 2 1 ack 40 ------- 0 2.0 0.0 3 10
r 0.90144 1 2 tcp 1540 ------- 0 0.0 2.0 4 7
+ 0.90144 2 1 ack 40 ------- 0 2.0 0.0 4 11
- 0.90144 2 1 ack 40 ------- 0 2.0 0.0 4 11
r 0.92608 1 2 tcp 1540 ------- 0 0.0 2.0 5 8
+ 0.92608 2 1 ack 40 ------- 0 2.0 0.0 5 12
- 0.92608 2 1 ack 40 ------- 0 2.0 0.0 5 12
r 0.93744 2 1 ack 40 ------- 0 2.0 0.0 3 10
+ 0.93744 1 0 ack 40 ------- 0 2.0 0.0 3 10
- 0.93744 1 0 ack 40 ------- 0 2.0 0.0 3 10
r 0.95072 1 2 tcp 1540 ------- 0 0.0 2.0 6 9
+ 0.95072 2 1 ack 40 ------- 0 2.0 0.0 6 13
- 0.95072 2 1 ack 40 ------- 0 2.0 0.0 6 13
r 0.96208 2 1 ack 40 ------- 0 2.0 0.0 4 11
+ 0.96208 1 0 ack 40 ------- 0 2.0 0.0 4 11
- 0.96208 1 0 ack 40 ------- 0 2.0 0.0 4 11
r 0.98672 2 1 ack 40 ------- 0 2.0 0.0 5 12
+ 0.98672 1 0 ack 40 ------- 0 2.0 0.0 5 12
- 0.98672 1 0 ack 40 ------- 0 2.0 0.0 5 12
r 0.99776 1 0 ack 40 ------- 0 2.0 0.0 3 10
+ 0.99776 0 1 tcp 1540 ------- 0 0.0 2.0 7 14
- 0.99776 0 1 tcp 1540 ------- 0 0.0 2.0 7 14
+ 0.99776 0 1 tcp 1540 ------- 0 0.0 2.0 8 15
- 1.01008 0 1 tcp 1540 ------- 0 0.0 2.0 8 15
r 1.01136 2 1 ack 40 ------- 0 2.0 0.0 6 13
+ 1.01136 1 0 ack 40 ------- 0 2.0 0.0 6 13
- 1.01136 1 0 ack 40 ------- 0 2.0 0.0 6 13
r 1.0224 1 0 ack 40 ------- 0 2.0 0.0 4 11
+ 1.0224 0 1 tcp 1540 ------- 0 0.0 2.0 9 16
+ 1.0224 0 1 tcp 1540 ------- 0 0.0 2.0 10 17
- 1.0224 0 1 tcp 1540 ------- 0 0.0 2.0 9 16
- 1.03472 0 1 tcp 1540 ------- 0 0.0 2.0 10 17
r 1.04704 1 0 ack 40 ------- 0 2.0 0.0 5 12
+ 1.04704 0 1 tcp 1540 ------- 0 0.0 2.0 11 18
+ 1.04704 0 1 tcp 1540 ------- 0 0.0 2.0 12 19
- 1.04704 0 1 tcp 1540 ------- 0 0.0 2.0 11 18
- 1.05936 0 1 tcp 1540 ------- 0 0.0 2.0 12 19
r 1.07008 0 1 tcp 1540 ------- 0 0.0 2.0 7 14
+ 1.07008 1 2 tcp 1540 ------- 0 0.0 2.0 7 14
- 1.07008 1 2 tcp 1540 ------- 0 0.0 2.0 7 14
r 1.07168 1 0 ack 40 ------- 0 2.0 0.0 6 13
+ 1.07168 0 1 tcp 1540 ------- 0 0.0 2.0 13 20
+ 1.07168 0 1 tcp 1540 ------- 0 0.0 2.0 14 21
- 1.07168 0 1 tcp 1540 ------- 0 0.0 2.0 13 20
r 1.0824 0 1 tcp 1540 ------- 0 0.0 2.0 8 15
+ 1.0824 1 2 tcp 1540 ------- 0 0.0 2.0 8 15
- 1.084 0 1 tcp 1540 ------- 0 0.0 2.0 14 21
r 1.09472 0 1 tcp 1540 ------- 0 0.0 2.0 9 16
+ 1.09472 1 2 tcp 1540 ------- 0 0.0 2.0 9 16
- 1.09472 1 2 tcp 1540 ------- 0 0.0 2.0 8 15
r 1.10704 0 1 tcp 1540 ------- 0 0.0 2.0 10 17
+ 1.10704 1 2 tcp 1540 ------- 0 0.0 2.0 10 17
- 1.11936 1 2 tcp 1540 ------- 0 0.0 2.0 9 16
r 1.11936 0 1 tcp 1540 ------- 0 0.0 2.0 11 18
+ 1.11936 1 2 tcp 1540 ------- 0 0.0 2.0 11 18
r 1.13168 0 1 tcp 1540 ------- 0 0.0 2.0 12 19
+ 1.13168 1 2 tcp 1540 ------- 0 0.0 2.0 12 19
- 1.144 1 2 tcp 1540 ------- 0 0.0 2.0 10 17
r 1.144 0 1 tcp 1540 ------- 0 0.0 2.0 13 20
+ 1.144 1 2 tcp 1540 ------- 0 0.0 2.0 13 20
r 1.15472 1 2 tcp 1540 ------- 0 0.0 2.0 7 14
+ 1.15472 2 1 ack 40 ------- 0 2.0 0.0 7 22
- 1.15472 2 1 ack 40 ------- 0 2.0 0.0 7 22
r 1.15632 0 1 tcp 1540 ------- 0 0.0 2.0 14 21
+ 1.15632 1 2 tcp 1540 ------- 0 0.0 2.0 14 21
d 1.15632 1 2 tcp 1540 ------- 0 0.0 2.0 14 21
- 1.16864 1 2 tcp 1540 ------- 0 0.0 2.0 11 18
r 1.17936 1 2 tcp 1540 ------- 0 0.0 2.0 8 15
+ 1.17936 2 1 ack 40 ------- 0 2.0 0.0 8 23
- 1.17936 2 1 ack 40 ------- 0 2.0 0.0 8 23
- 1.19328 1 2 tcp 1540 ------- 0 0.0 2.0 12 19
r 1.204 1 2 tcp 1540 ------- 0 0.0 2.0 9 16
+ 1.204 2 1 ack 40 ------- 0 2.0 0.0 9 24
- 1.204 2 1 ack 40 ------- 0 2.0 0.0 9 24
r 1.21536 2 1 ack 40 ------- 0 2.0 0.0 7 22
+ 1.21536 1 0 ack 40 ------- 0 2.0 0.0 7 22
- 1.21536 1 0 ack 40 ------- 0 2.0 0.0 7 22
- 1.21792 1 2 tcp 1540 ------- 0 0.0 2.0 13 20
r 1.22864 1 2 tcp 1540 ------- 0 0.0 2.0 10 17
+ 1.22864 2 1 ack 40 ------- 0 2.0 0.0 10 25
- 1.22864 2 1 ack 40 ------- 0 2.0 0.0 10 25
r 1.24 2 1 ack 40 ------- 0 2.0 0.0 8 23
+ 1.24 1 0 ack 40 ------- 0 2.0 0.0 8 23
- 1.24 1 0 ack 40 ------- 0 2.0 0.0 8 23
r 1.25328 1 2 tcp 1540 ------- 0 0.0 2.0 11 18
+ 1.25328 2 1 ack 40 ------- 0 2.0 0.0 11 26
- 1.25328 2 1 ack 40 ------- 0 2.0 0.0 11 26
r 1.26464 2 1 ack 40 ------- 0 2.0 0.0 9 24
+ 1.26464 1 0 ack 40 ------- 0 2.0 0.0 9 24
- 1.26464 1 0 ack 40 ------- 0 2.0 0.0 9 24
r 1.27568 1 0 ack 40 ------- 0 2.0 0.0 7 22
+ 1.27568 0 1 tcp 1540 ------- 0 0.0 2.0 15 27
- 1.27568 0 1 tcp 1540 ------- 0 0.0 2.0 15 27
+ 1.27568 0 1 tcp 1540 ------- 0 0.0 2.0 16 28
r 1.27792 1 2 tcp 1540 ------- 0 0.0 2.0 12 19
+ 1.27792 2 1 ack 40 ------- 0 2.0 0.0 12 29
- 1.27792 2 1 ack 40 ------- 0 2.0 0.0 12 29
- 1.288 0 1 tcp 1540 ------- 0 0.0 2.0 16 28
r 1.28928 2 1 ack 40 ------- 0 2.0 0.0 10 25
+ 1.28928 1 0 ack 40 ------- 0 2.0 0.0 10 25
- 1.28928 1 0 ack 40 ------- 0 2.0 0.0 10 25
r 1.30032 1 0 ack 40 ------- 0 2.0 0.0 8 23
+ 1.30032 0 1 tcp 1540 ------- 0 0.0 2.0 17 30
+ 1.30032 0 1 tcp 1540 ------- 0 0.0 2.0 18 31
- 1.30032 0 1 tcp 1540 ------- 0 0.0 2.0 17 30
r 1.30256 1 2 tcp 1540 ------- 0 0.0 2.0 13 20
+ 1.30256 2 1 ack 40 ------- 0 2.0 0.0 13 32
- 1.30256 2 1 ack 40 ------- 0 2.0 0.0 13 32
- 1.31264 0 1 tcp 1540 ------- 0 0.0 2.0 18 31
r 1.31392 2 1 ack 40 ------- 0 2.0 0.0 11 26
+ 1.31392 1 0 ack 40 ------- 0 2.0 0.0 11 26
- 1.31392 1 0 ack 40 ------- 0 2.0 0.0 11 26
r 1.32496 1 0 ack 40 ------- 0 2.0 0.0 9 24
+ 1.32496 0 1 tcp 1540 ------- 0 0.0 2.0 19 33
+ 1.32496 0 1 tcp 1540 ------- 0 0.0 2.0 20 34
- 1.32496 0 1 tcp 1540 ------- 0 0.0 2.0 19 33
- 1.33728 0 1 tcp 1540 ------- 0 0.0 2.0 20 34
r 1.33856 2 1 ack 40 ------- 0 2.0 0.0 12 29
+ 1.33856 1 0 ack 40 ------- 0 2.0 0.0 12 29
- 1.33856 1 0 ack 40 ------- 0 2.0 0.0 12 29
r 1.348 0 1 tcp 1540 ------- 0 0.0 2.0 15 27
+ 1.348 1 2 tcp 1540 ------- 0 0.0 2.0 15 27
- 1.348 1 2 tcp 1540 ------- 0 0.0 2.0 15 27
r 1.3496 1 0 ack 40 ------- 0 2.0 0.0 10 25
+ 1.3496 0 1 tcp 1540 ------- 0 0.0 2.0 21 35
+ 1.3496 0 1 tcp 1540 ------- 0 0.0 2.0 22 36
- 1.3496 0 1 tcp 1540 ------- 0 0.0 2.0 21 35
r 1.36032 0 1 tcp 1540 ------- 0 0.0 2.0 16 28
+ 1.36032 1 2 tcp 1540 ------- 0 0.0 2.0 16 28
- 1.36192 0 1 tcp 1540 ------- 0 0.0 2.0 22 36
r 1.3632 2 1 ack 40 ------- 0 2.0 0.0 13 32
+ 1.3632 1 0 ack 40 ------- 0 2.0 0.0 13 32
- 1.3632 1 0 ack 40 ------- 0 2.0 0.0 13 32
- 1.37264 1 2 tcp 1540 ------- 0 0.0 2.0 16 28
r 1.37264 0 1 tcp 1540 ------- 0 0.0 2.0 17 30
+ 1.37264 1 2 tcp 1540 ------- 0 0.0 2.0 17 30
r 1.37424 1 0 ack 40 ------- 0 2.0 0.0 11 26
+ 1.37424 0 1 tcp 1540 ------- 0 0.0 2.0 23 37
+ 1.37424 0 1 tcp 1540 ------- 0 0.0 2.0 24 38
- 1.37424 0 1 tcp 1540 ------- 0 0.0 2.0 23 37
r 1.38496 0 1 tcp 1540 ------- 0 0.0 2.0 18 31
+ 1.38496 1 2 tcp 1540 ------- 0 0.0 2.0 18 31
- 1.38656 0 1 tcp 1540 ------- 0 0.0 2.0 24 38
- 1.39728 1 2 tcp 1540 ------- 0 0.0 2.0 17 30
r 1.39728 0 1 tcp 1540 ------- 0 0.0 2.0 19 33
+ 1.39728 1 2 tcp 1540 ------- 0 0.0 2.0 19 33
r 1.39888 1 0 ack 40 ------- 0 2.0 0.0 12 29
+ 1.39888 0 1 tcp 1540 ------- 0 0.0 2.0 25 39
+ 1.39888 0 1 tcp 1540 ------- 0 0.0 2.0 26 40
- 1.39888 0 1 tcp 1540 ------- 0 0.0 2.0 25 39
r 1.4096 0 1 tcp 1540 ------- 0 0.0 2.0 20 34
+ 1.4096 1 2 tcp 1540 ------- 0 0.0 2.0 20 34
- 1.4112 0 1 tcp 1540 ------- 0 0.0 2.0 26 40
- 1.42192 1 2 tcp 1540 ------- 0 0.0 2.0 18 31
r 1.42192 0 1 tcp 1540 ------- 0 0.0 2.0 21 35
+ 1.42192 1 2 tcp 1540 ------- 0 0.0 2.0 21 35
r 1.42352 1 0 ack 40 ------- 0 2.0 0.0 13 32
+ 1.42352 0 1 tcp 1540 ------- 0 0.0 2.0 27 41
+ 1.42352 0 1 tcp 1540 ------- 0 0.0 2.0 28 42
- 1.42352 0 1 tcp 1540 ------- 0 0.0 2.0 27 41
r 1.43264 1 2 tcp 1540 ------- 0 0.0 2.0 15 27
+ 1.43264 2 1 ack 40 ------- 0 2.0 0.0 13 43
- 1.43264 2 1 ack 40 ------- 0 2.0 0.0 13 43
r 1.43424 0 1 tcp 1540 ------- 0 0.0 2.0 22 36
+ 1.43424 1 2 tcp 1540 ------- 0 0.0 2.0 22 36
d 1.43424 1 2 tcp 1540 ------- 0 0.0 2.0 22 36
- 1.43584 0 1 tcp 1540 ------- 0 0.0 2.0 28 42
- 1.44656 1 2 tcp 1540 ------- 0 0.0 2.0 19 33
r 1.44656 0 1 tcp 1540 ------- 0 0.0 2.0 23 37
+ 1.44656 1 2 tcp 1540 ------- 0 0.0 2.0 23 37
r 1.45728 1 2 tcp 1540 ------- 0 0.0 2.0 16 28
+ 1.45728 2 1 ack 40 ------- 0 2.0 0.0 13 44
- 1.45728 2 1 ack 40 ------- 0 2.0 0.0 13 44
r 1.45888 0 1 tcp 1540 ------- 0 0.0 2.0 24 38
+ 1.45888 1 2 tcp 1540 ------- 0 0.0 2.0 24 38
d 1.45888 1 2 tcp 1540 ------- 0 0.0 2.0 24 38
- 1.4712 1 2 tcp 1540 ------- 0 0.0 2.0 20 34
r 1.4712 0 1 tcp 1540 ------- 0 0.0 2.0 25 39
+ 1.4712 1 2 tcp 1540 ------- 0 0.0 2.0 25 39
r 1.48192 1 2 tcp 1540 ------- 0 0.0 2.0 17 30
+ 1.48192 2 1 ack 40 ------- 0 2.0 0.0 13 45
- 1.48192 2 1 ack 40 ------- 0 2.0 0.0 13 45
r 1.48352 0 1 tcp 1540 ------- 0 0.0 2.0 26 40
+ 1.48352 1 2 tcp 1540 ------- 0 0.0 2.0 26 40
d 1.48352 1 2 tcp 1540 ------- 0 0.0 2.0 26 40
r 1.49328 2 1 ack 40 ------- 0 2.0 0.0 13 43
+ 1.49328 1 0 ack 40 ------- 0 2.0 0.0 13 43
- 1.49328 1 0 ack 40 ------- 0 2.0 0.0 13 43
- 1.49584 1 2 tcp 1540 ------- 0 0.0 2.0 21 35
r 1.49584 0 1 tcp 1540 ------- 0 0.0 2.0 27 41
+ 1.49584 1 2 tcp 1540 ------- 0 0.0 2.0 27 41
r 1.50656 1 2 tcp 1540 ------- 0 0.0 2.0 18 31
+ 1.50656 2 1 ack 40 ------- 0 2.0 0.0 13 46
- 1.50656 2 1 ack 40 ------- 0 2.0 0.0 13 46
r 1.50816 0 1 tcp 1540 ------- 0 0.0 2.0 28 42
+ 1.50816 1 2 tcp 1540 ------- 0 0.0 2.0 28 42
d 1.50816 1 2 tcp 1540 ------- 0 0.0 2.0 28 42
r 1.51792 2 1 ack 40 ------- 0 2.0 0.0 13 44
+ 1.51792 1 0 ack 40 ------- 0 2.0 0.0 13 44
- 1.51792 1 0 ack 40 ------- 0 2.0 0.0 13 44
- 1.52048 1 2 tcp 1540 ------- 0 0.0 2.0 23 37
r 1.5312 1 2 tcp 1540 ------- 0 0.0 2.0 19 33
+ 1.5312 2 1 ack 40 ------- 0 2.0 0.0 13 47
- 1.5312 2 1 ack 40 ------- 0 2.0 0.0 13 47
r 1.54256 2 1 ack 40 ------- 0 2.0 0.0 13 45
+ 1.54256 1 0 ack 40 ------- 0 2.0 0.0 13 45
- 1.54256 1 0 ack 40 ------- 0 2.0 0.0 13 45
- 1.54512 1 2 tcp 1540 ------- 0 0.0 2.0 25 39
r 1.5536 1 0 ack 40 ------- 0 2.0 0.0 13 43
+ 1.5536 0 1 tcp 1540 ------- 0 0.0 2.0 29 48
- 1.5536 0 1 tcp 1540 ------- 0 0.0 2.0 29 48
r 1.55584 1 2 tcp 1540 ------- 0 0.0 2.0 20 34
+ 1.55584 2 1 ack 40 ------- 0 2.0 0.0 13 49
- 1.55584 2 1 ack 40 ------- 0 2.0 0.0 13 49
r 1.5672 2 1 ack 40 ------- 0 2.0 0.0 13 46
+ 1.5672 1 0 ack 40 ------- 0 2.0 0.0 13 46
- 1.5672 1 0 ack 40 ------- 0 2.0 0.0 13 46
- 1.56976 1 2 tcp 1540 ------- 0 0.0 2.0 27 41
r 1.57824 1 0 ack 40 ------- 0 2.0 0.0 13 44
+ 1.57824 0 1 tcp 1540 ------- 0 0.0 2.0 30 50
- 1.57824 0 1 tcp 1540 ------- 0 0.0 2.0 30 50
r 1.58048 1 2 tcp 1540 ------- 0 0.0 2.0 21 35
+ 1.58048 2 1 ack 40 ------- 0 2.0 0.0 13 51
- 1.58048 2 1 ack 40 ------- 0 2.0 0.0 13 51
r 1.59184 2 1 ack 40 ------- 0 2.0 0.0 13 47
+ 1.59184 1 0 ack 40 ------- 0 2.0 0.0 13 47
- 1.59184 1 0 ack 40 ------- 0 2.0 0.0 13 47
r 1.60288 1 0 ack 40 ------- 0 2.0 0.0 13 45
+ 1.60288 0 1 tcp 1540 ---A--- 0 0.0 2.0 14 52
- 1.60288 0 1 tcp 1540 ---A--- 0 0.0 2.0 14 52
r 1.60512 1 2 tcp 1540 ------- 0 0.0 2.0 23 37
+ 1.60512 2 1 ack 40 ------- 0 2.0 0.0 13 53
- 1.60512 2 1 ack 40 ------- 0 2.0 0.0 13 53
r 1.61648 2 1 ack 40 ------- 0 2.0 0.0 13 49
+ 1.61648 1 0 ack 40 ------- 0 2.0 0.0 13 49
- 1.61648 1 0 ack 40 ------- 0 2.0 0.0 13 49
r 1.62592 0 1 tcp 1540 ------- 0 0.0 2.0 29 48
+ 1.62592 1 2 tcp 1540 ------- 0 0.0 2.0 29 48
- 1.62592 1 2 tcp 1540 ------- 0 0.0 2.0 29 48
r 1.62752 1 0 ack 40 ------- 0 2.0 0.0 13 46
r 1.62976 1 2 tcp 1540 ------- 0 0.0 2.0 25 39
+ 1.62976 2 1 ack 40 ------- 0 2.0 0.0 13 54
- 1.62976 2 1 ack 40 ------- 0 2.0 0.0 13 54
r 1.64112 2 1 ack 40 ------- 0 2.0 0.0 13 51
+ 1.64112 1 0 ack 40 ------- 0 2.0 0.0 13 51
- 1.64112 1 0 ack 40 ------- 0 2.0 0.0 13 51
r 1.65056 0 1 tcp 1540 ------- 0 0.0 2.0 30 50
+ 1.65056 1 2 tcp 1540 ------- 0 0.0 2.0 30 50
- 1.65056 1 2 tcp 1540 ------- 0 0.0 2.0 30 50
r 1.65216 1 0 ack 40 ------- 0 2.0 0.0 13 47
r 1.6544 1 2 tcp 1540 ------- 0 0.0 2.0 27 41
+ 1.6544 2 1 ack 40 ------- 0 2.0 0.0 13 55
- 1.6544 2 1 ack 40 ------- 0 2.0 0.0 13 55
r 1.66576 2 1 ack 40 ------- 0 2.0 0.0 13 53
+ 1.66576 1 0 ack 40 ------- 0 2.0 0.0 13 53
- 1.66576 1 0 ack 40 ------- 0 2.0 0.0 13 53
r 1.6752 0 1 tcp 1540 ---A--- 0 0.0 2.0 14 52
+ 1.6752 1 2 tcp 1540 ---A--- 0 0.0 2.0 14 52
- 1.6752 1 2 tcp 1540 ---A--- 0 0.0 2.0 14 52
r 1.6768 1 0 ack 40 ------- 0 2.0 0.0 13 49
r 1.6904 2 1 ack 40 ------- 0 2.0 0.0 13 54
+ 1.6904 1 0 ack 40 ------- 0 2.0 0.0 13 54
- 1.6904 1 0 ack 40 ------- 0 2.0 0.0 13 54
r 1.70144 1 0 ack 40 ------- 0 2.0 0.0 13 51
r 1.71056 1 2 tcp 1540 ------- 0 0.0 2.0 29 48
+ 1.71056 2 1 ack 40 ------- 0 2.0 0.0 13 56
- 1.71056 2 1 ack 40 ------- 0 2.0 0.0 13 56
r 1.71504 2 1 ack 40 ------- 0 2.0 0.0 13 55
+ 1.71504 1 0 ack 40 ------- 0 2.0 0.0 13 55
- 1.71504 1 0 ack 40 ------- 0 2.0 0.0 13 55
r 1.72608 1 0 ack 40 ------- 0 2.0 0.0 13 53
r 1.7352 1 2 tcp 1540 ------- 0 0.0 2.0 30 50
+ 1.7352 2 1 ack 40 ------- 0 2.0 0.0 13 57
- 1.7352 2 1 ack 40 ------- 0 2.0 0.0 13 57
r 1.75072 1 0 ack 40 ------- 0 2.0 0.0 13 54
r 1.75984 1 2 tcp 1540 ---A--- 0 0.0 2.0 14 52
+ 1.75984 2 1 ack 40 ------- 0 2.0 0.0 21 58
- 1.75984 2 1 ack 40 ------- 0 2.0 0.0 21 58
r 1.7712 2 1 ack 40 ------- 0 2.0 0.0 13 56
+ 1.7712 1 0 ack 40 ------- 0 2.0 0.0 13 56
- 1.7712 1 0 ack 40 ------- 0 2.0 0.0 13 56
r 1.77536 1 0 ack 40 ------- 0 2.0 0.0 13 55
r 1.79584 2 1 ack 40 ------- 0 2.0 0.0 13 57
+ 1.79584 1 0 ack 40 ------- 0 2.0 0.0 13 57
- 1.79584 1 0 ack 40 ------- 0 2.0 0.0 13 57
r 1.82048 2 1 ack 40 ------- 0 2.0 0.0 21 58
+ 1.82048 1 0 ack 40 ------- 0 2.0 0.0 21 58
- 1.82048 1 0 ack 40 ------- 0 2.0 0.0 21 58
r 1.83152 1 0 ack 40 ------- 0 2.0 0.0 13 56
r 1.85616 1 0 ack 40 ------- 0 2.0 0.0 13 57
r 1.8808 1 0 ack 40 ------- 0 2.0 0.0 21 58
+ 1.8808 0 1 tcp 1540 ------- 0 0.0 2.0 22 59
- 1.8808 0 1 tcp 1540 ------- 0 0.0 2.0 22 59
+ 1.8808 0 1 tcp 1540 ------- 0 0.0 2.0 23 60
- 1.89312 0 1 tcp 1540 ------- 0 0.0 2.0 23 60
r 1.95312 0 1 tcp 1540 ------- 0 0.0 2.0 22 59
+ 1.95312 1 2 tcp 1540 ------- 0 0.0 2.0 22 59
- 1.95312 1 2 tcp 1540 ------- 0 0.0 2.0 22 59
r 1.96544 0 1 tcp 1540 ------- 0 0.0 2.0 23 60
+ 1.96544 1 2 tcp 1540 ------- 0 0.0 2.0 23 60
- 1.97776 1 2 tcp 1540 ------- 0 0.0 2.0 23 60
r 2.03776 1 2 tcp 1540 ------- 0 0.0 2.0 22 59
+ 2.03776 2 1 ack 40 ------- 0 2.0 0.0 23 61
- 2.03776 2 1 ack 40 ------- 0 2.0 0.0 23 61
r 2.0624 1 2 tcp 1540 ------- 0 0.0 2.0 23 60
+ 2.0624 2 1 ack 40 ------- 0 2.0 0.0 23 62
- 2.0624 2 1 ack 40 ------- 0 2.0 0.0 23 62
r 2.0984 2 1 ack 40 ------- 0 2.0 0.0 23 61
+ 2.0984 1 0 ack 40 ------- 0 2.0 0.0 23 61
- 2.0984 1 0 ack 40 ------- 0 2.0 0.0 23 61
r 2.12304 2 1 ack 40 ------- 0 2.0 0.0 23 62
+ 2.12304 1 0 ack 40 ------- 0 2.0 0.0 23 62
- 2.12304 1 0 ack 40 ------- 0 2.0 0.0 23 62
r 2.15872 1 0 ack 40 ------- 0 2.0 0.0 23 61
+ 2.15872 0 1 tcp 1540 ------- 0 0.0 2.0 24 63
- 2.15872 0 1 tcp 1540 ------- 0 0.0 2.0 24 63
+ 2.15872 0 1 tcp 1540 ------- 0 0.0 2.0 25 64
+ 2.15872 0 1 tcp 1540 ------- 0 0.0 2.0 26 65
- 2.17104 0 1 tcp 1540 ------- 0 0.0 2.0 25 64
- 2.18336 0 1 tcp 1540 ------- 0 0.0 2.0 26 65
r 2.18336 1 0 ack 40 ------- 0 2.0 0.0 23 62
+ 2.18336 0 1 tcp 1540 ------- 0 0.0 2.0 27 66
- 2.19568 0 1 tcp 1540 ------- 0 0.0 2.0 27 66
r 2.23104 0 1 tcp 1540 ------- 0 0.0 2.0 24 63
+ 2.23104 1 2 tcp 1540 ------- 0 0.0 2.0 24 63
- 2.23104 1 2 tcp 1540 ------- 0 0.0 2.0 24 63
r 2.24336 0 1 tcp 1540 ------- 0 0.0 2.0 25 64
+ 2.24336 1 2 tcp 1540 ------- 0 0.0 2.0 25 64
r 2.25568 0 1 tcp 1540 ------- 0 0.0 2.0 26 65
+ 2.25568 1 2 tcp 1540 ------- 0 0.0 2.0 26 65
- 2.25568 1 2 tcp 1540 ------- 0 0.0 2.0 25 64
r 2.268 0 1 tcp 1540 ------- 0 0.0 2.0 27 66
+ 2.268 1 2 tcp 1540 ------- 0 0.0 2.0 27 66
- 2.28032 1 2 tcp 1540 ------- 0 0.0 2.0 26 65
- 2.30496 1 2 tcp 1540 ------- 0 0.0 2.0 27 66
r 2.31568 1 2 tcp 1540 ------- 0 0.0 2.0 24 63
+ 2.31568 2 1 ack 40 ------- 0 2.0 0.0 25 67
- 2.31568 2 1 ack 40 ------- 0 2.0 0.0 25 67
r 2.34032 1 2 tcp 1540 ------- 0 0.0 2.0 25 64
+ 2.34032 2 1 ack 40 ------- 0 2.0 0.0 25 68
- 2.34032 2 1 ack 40 ------- 0 2.0 0.0 25 68
r 2.36496 1 2 tcp 1540 ------- 0 0.0 2.0 26 65
+ 2.36496 2 1 ack 40 ------- 0 2.0 0.0 27 69
- 2.36496 2 1 ack 40 ------- 0 2.0 0.0 27 69
r 2.37632 2 1 ack 40 ------- 0 2.0 0.0 25 67
+ 2.37632 1 0 ack 40 ------- 0 2.0 0.0 25 67
- 2.37632 1 0 ack 40 ------- 0 2.0 0.0 25 67
r 2.3896 1 2 tcp 1540 ------- 0 0.0 2.0 27 66
+ 2.3896 2 1 ack 40 ------- 0 2.0 0.0 27 70
- 2.3896 2 1 ack 40 ------- 0 2.0 0.0 27 70
r 2.40096 2 1 ack 40 ------- 0 2.0 0.0 25 68
+ 2.40096 1 0 ack 40 ------- 0 2.0 0.0 25 68
- 2.40096 1 0 ack 40 ------- 0 2.0 0.0 25 68
r 2.4256 2 1 ack 40 ------- 0 2.0 0.0 27 69
+ 2.4256 1 0 ack 40 ------- 0 2.0 0.0 27 69
- 2.4256 1 0 ack 40 ------- 0 2.0 0.0 27 69
r 2.43664 1 0 ack 40 ------- 0 2.0 0.0 25 67
+ 2.43664 0 1 tcp 1540 ------- 0 0.0 2.0 28 71
- 2.43664 0 1 tcp 1540 ------- 0 0.0 2.0 28 71
+ 2.43664 0 1 tcp 1540 ------- 0 0.0 2.0 29 72
- 2.44896 0 1 tcp 1540 ------- 0 0.0 2.0 29 72
r 2.45024 2 1 ack 40 ------- 0 2.0 0.0 27 70
+ 2.45024 1 0 ack 40 ------- 0 2.0 0.0 27 70
- 2.45024 1 0 ack 40 ------- 0 2.0 0.0 27 70
r 2.46128 1 0 ack 40 ------- 0 2.0 0.0 25 68
+ 2.46128 0 1 tcp 1540 ------- 0 0.0 2.0 30 73
- 2.46128 0 1 tcp 1540 ------- 0 0.0 2.0 30 73
r 2.48592 1 0 ack 40 ------- 0 2.0 0.0 27 69
+ 2.48592 0 1 tcp 1540 ------- 0 0.0 2.0 31 74
- 2.48592 0 1 tcp 1540 ------- 0 0.0 2.0 31 74
+ 2.48592 0 1 tcp 1540 ------- 0 0.0 2.0 32 75
- 2.49824 0 1 tcp 1540 ------- 0 0.0 2.0 32 75
r 2.50896 0 1 tcp 1540 ------- 0 0.0 2.0 28 71
+ 2.50896 1 2 tcp 1540 ------- 0 0.0 2.0 28 71
- 2.50896 1 2 tcp 1540 ------- 0 0.0 2.0 28 71
r 2.51056 1 0 ack 40 ------- 0 2.0 0.0 27 70
+ 2.51056 0 1 tcp 1540 ------- 0 0.0 2.0 33 76
- 2.51056 0 1 tcp 1540 ------- 0 0.0 2.0 33 76
r 2.52128 0 1 tcp 1540 ------- 0 0.0 2.0 29 72
+ 2.52128 1 2 tcp 1540 ------- 0 0.0 2.0 29 72
r 2.5336 0 1 tcp 1540 ------- 0 0.0 2.0 30 73
+ 2.5336 1 2 tcp 1540 ------- 0 0.0 2.0 30 73
- 2.5336 1 2 tcp 1540 ------- 0 0.0 2.0 29 72
r 2.55824 0 1 tcp 1540 ------- 0 0.0 2.0 31 74
+ 2.55824 1 2 tcp 1540 ------- 0 0.0 2.0 31 74
- 2.55824 1 2 tcp 1540 ------- 0 0.0 2.0 30 73
r 2.57056 0 1 tcp 1540 ------- 0 0.0 2.0 32 75
+ 2.57056 1 2 tcp 1540 ------- 0 0.0 2.0 32 75
r 2.58288 0 1 tcp 1540 ------- 0 0.0 2.0 33 76
+ 2.58288 1 2 tcp 1540 ------- 0 0.0 2.0 33 76
- 2.58288 1 2 tcp 1540 ------- 0 0.0 2.0 31 74
r 2.5936 1 2 tcp 1540 ------- 0 0.0 2.0 28 71
+ 2.5936 2 1 ack 40 ------- 0 2.0 0.0 30 77
- 2.5936 2 1 ack 40 ------- 0 2.0 0.0 30 77
- 2.60752 1 2 tcp 1540 ------- 0 0.0 2.0 32 75
r 2.61824 1 2 tcp 1540 ------- 0 0.0 2.0 29 72
+ 2.61824 2 1 ack 40 ------- 0 2.0 0.0 30 78
- 2.61824 2 1 ack 40 ------- 0 2.0 0.0 30 78
- 2.63216 1 2 tcp 1540 ------- 0 0.0 2.0 33 76
r 2.64288 1 2 tcp 1540 ------- 0 0.0 2.0 30 73
+ 2.64288 2 1 ack 40 ------- 0 2.0 0.0 30 79
- 2.64288 2 1 ack 40 ------- 0 2.0 0.0 30 79
r 2.65424 2 1 ack 40 ------- 0 2.0 0.0 30 77
+ 2.65424 1 0 ack 40 ------- 0 2.0 0.0 30 77
- 2.65424 1 0 ack 40 ------- 0 2.0 0.0 30 77
r 2.66752 1 2 tcp 1540 ------- 0 0.0 2.0 31 74
+ 2.66752 2 1 ack 40 ------- 0 2.0 0.0 31 80
- 2.66752 2 1 ack 40 ------- 0 2.0 0.0 31 80
r 2.67888 2 1 ack 40 ------- 0 2.0 0.0 30 78
+ 2.67888 1 0 ack 40 ------- 0 2.0 0.0 30 78
- 2.67888 1 0 ack 40 ------- 0 2.0 0.0 30 78
r 2.69216 1 2 tcp 1540 ------- 0 0.0 2.0 32 75
+ 2.69216 2 1 ack 40 ------- 0 2.0 0.0 32 81
- 2.69216 2 1 ack 40 ------- 0 2.0 0.0 32 81
r 2.70352 2 1 ack 40 ------- 0 2.0 0.0 30 79
+ 2.70352 1 0 ack 40 ------- 0 2.0 0.0 30 79
- 2.70352 1 0 ack 40 ------- 0 2.0 0.0 30 79
r 2.71456 1 0 ack 40 ------- 0 2.0 0.0 30 77
+ 2.71456 0 1 tcp 1540 ------- 0 0.0 2.0 34 82
- 2.71456 0 1 tcp 1540 ------- 0 0.0 2.0 34 82
+ 2.71456 0 1 tcp 1540 ------- 0 0.0 2.0 35 83
+ 2.71456 0 1 tcp 1540 ------- 0 0.0 2.0 36 84
r 2.7168 1 2 tcp 1540 ------- 0 0.0 2.0 33 76
+ 2.7168 2 1 ack 40 ------- 0 2.0 0.0 33 85
- 2.7168 2 1 ack 40 ------- 0 2.0 0.0 33 85
- 2.72688 0 1 tcp 1540 ------- 0 0.0 2.0 35 83
r 2.72816 2 1 ack 40 ------- 0 2.0 0.0 31 80
+ 2.72816 1 0 ack 40 ------- 0 2.0 0.0 31 80
- 2.72816 1 0 ack 40 ------- 0 2.0 0.0 31 80
- 2.7392 0 1 tcp 1540 ------- 0 0.0 2.0 36 84
r 2.7392 1 0 ack 40 ------- 0 2.0 0.0 30 78
+ 2.7392 0 1 tcp 1540 ------- 0 0.0 2.0 37 86
- 2.75152 0 1 tcp 1540 ------- 0 0.0 2.0 37 86
r 2.7528 2 1 ack 40 ------- 0 2.0 0.0 32 81
+ 2.7528 1 0 ack 40 ------- 0 2.0 0.0 32 81
- 2.7528 1 0 ack 40 ------- 0 2.0 0.0 32 81
r 2.76384 1 0 ack 40 ------- 0 2.0 0.0 30 79
+ 2.76384 0 1 tcp 1540 ------- 0 0.0 2.0 38 87
- 2.76384 0 1 tcp 1540 ------- 0 0.0 2.0 38 87
r 2.77744 2 1 ack 40 ------- 0 2.0 0.0 33 85
+ 2.77744 1 0 ack 40 ------- 0 2.0 0.0 33 85
- 2.77744 1 0 ack 40 ------- 0 2.0 0.0 33 85
r 2.78688 0 1 tcp 1540 ------- 0 0.0 2.0 34 82
+ 2.78688 1 2 tcp 1540 ------- 0 0.0 2.0 34 82
- 2.78688 1 2 tcp 1540 ------- 0 0.0 2.0 34 82
r 2.78848 1 0 ack 40 ------- 0 2.0 0.0 31 80
r 2.7992 0 1 tcp 1540 ------- 0 0.0 2.0 35 83
+ 2.7992 1 2 tcp 1540 ------- 0 0.0 2.0 35 83
r 2.81152 0 1 tcp 1540 ------- 0 0.0 2.0 36 84
+ 2.81152 1 2 tcp 1540 ------- 0 0.0 2.0 36 84
- 2.81152 1 2 tcp 1540 ------- 0 0.0 2.0 35 83
r 2.81312 1 0 ack 40 ------- 0 2.0 0.0 32 81
+ 2.81312 0 1 tcp 1540 ------- 0 0.0 2.0 39 88
- 2.81312 0 1 tcp 1540 ------- 0 0.0 2.0 39 88
r 2.82384 0 1 tcp 1540 ------- 0 0.0 2.0 37 86
+ 2.82384 1 2 tcp 1540 ------- 0 0.0 2.0 37 86
r 2.83616 0 1 tcp 1540 ------- 0 0.0 2.0 38 87
+ 2.83616 1 2 tcp 1540 ------- 0 0.0 2.0 38 87
- 2.83616 1 2 tcp 1540 ------- 0 0.0 2.0 36 84
r 2.83776 1 0 ack 40 ------- 0 2.0 0.0 33 85
+ 2.83776 0 1 tcp 1540 ------- 0 0.0 2.0 40 89
- 2.83776 0 1 tcp 1540 ------- 0 0.0 2.0 40 89
- 2.8608 1 2 tcp 1540 ------- 0 0.0 2.0 37 86
r 2.87152 1 2 tcp 1540 ------- 0 0.0 2.0 34 82
+ 2.87152 2 1 ack 40 ------- 0 2.0 0.0 34 90
- 2.87152 2 1 ack 40 ------- 0 2.0 0.0 34 90
r 2.88544 0 1 tcp 1540 ------- 0 0.0 2.0 39 88
+ 2.88544 1 2 tcp 1540 ------- 0 0.0 2.0 39 88
- 2.88544 1 2 tcp 1540 ------- 0 0.0 2.0 38 87
r 2.89616 1 2 tcp 1540 ------- 0 0.0 2.0 35 83
+ 2.89616 2 1 ack 40 ------- 0 2.0 0.0 35 91
- 2.89616 2 1 ack 40 ------- 0 2.0 0.0 35 91
r 2.91008 0 1 tcp 1540 ------- 0 0.0 2.0 40 89
+ 2.91008 1 2 tcp 1540 ------- 0 0.0 2.0 40 89
- 2.91008 1 2 tcp 1540 ------- 0 0.0 2.0 39 88
r 2.9208 1 2 tcp 1540 ------- 0 0.0 2.0 36 84
+ 2.9208 2 1 ack 40 ------- 0 2.0 0.0 36 92
- 2.9208 2 1 ack 40 ------- 0 2.0 0.0 36 92
r 2.93216 2 1 ack 40 ------- 0 2.0 0.0 34 90
+ 2.93216 1 0 ack 40 ------- 0 2.0 0.0 34 90
- 2.93216 1 0 ack 40 ------- 0 2.0 0.0 34 90
- 2.93472 1 2 tcp 1540 ------- 0 0.0 2.0 40 89
r 2.94544 1 2 tcp 1540 ------- 0 0.0 2.0 37 86
+ 2.94544 2 1 ack 40 ------- 0 2.0 0.0 37 93
- 2.94544 2 1 ack 40 ------- 0 2.0 0.0 37 93
r 2.9568 2 1 ack 40 ------- 0 2.0 0.0 35 91
+ 2.9568 1 0 ack 40 ------- 0 2.0 0.0 35 91
- 2.9568 1 0 ack 40 ------- 0 2.0 0.0 35 91
r 2.97008 1 2 tcp 1540 ------- 0 0.0 2.0 38 87
+ 2.97008 2 1 ack 40 ------- 0 2.0 0.0 38 94
- 2.97008 2 1 ack 40 ------- 0 2.0 0.0 38 94
r 2.98144 2 1 ack 40 ------- 0 2.0 0.0 36 92
+ 2.98144 1 0 ack 40 ------- 0 2.0 0.0 36 92
- 2.98144 1 0 ack 40 ------- 0 2.0 0.0 36 92
r 2.99248 1 0 ack 40 ------- 0 2.0 0.0 34 90
+ 2.99248 0 1 tcp 1540 ------- 0 0.0 2.0 41 95
- 2.99248 0 1 tcp 1540 ------- 0 0.0 2.0 41 95
r 2.99472 1 2 tcp 1540 ------- 0 0.0 2.0 39 88
+ 2.99472 2 1 ack 40 ------- 0 2.0 0.0 39 96
- 2.99472 2 1 ack 40 ------- 0 2.0 0.0 39 96
r 3.00608 2 1 ack 40 ------- 0 2.0 0.0 37 93
+ 3.00608 1 0 ack 40 ------- 0 2.0 0.0 37 93
- 3.00608 1 0 ack 40 ------- 0 2.0 0.0 37 93
r 3.01712 1 0 ack 40 ------- 0 2.0 0.0 35 91
+ 3.01712 0 1 tcp 1540 ------- 0 0.0 2.0 42 97
- 3.01712 0 1 tcp 1540 ------- 0 0.0 2.0 42 97
r 3.01936 1 2 tcp 1540 ------- 0 0.0 2.0 40 89
+ 3.01936 2 1 ack 40 ------- 0 2.0 0.0 40 98
- 3.01936 2 1 ack 40 ------- 0 2.0 0.0 40 98
r 3.03072 2 1 ack 40 ------- 0 2.0 0.0 38 94
+ 3.03072 1 0 ack 40 ------- 0 2.0 0.0 38 94
- 3.03072 1 0 ack 40 ------- 0 2.0 0.0 38 94
r 3.04176 1 0 ack 40 ------- 0 2.0 0.0 36 92
+ 3.04176 0 1 tcp 1540 ------- 0 0.0 2.0 43 99
- 3.04176 0 1 tcp 1540 ------- 0 0.0 2.0 43 99
r 3.05536 2 1 ack 40 ------- 0 2.0 0.0 39 96
+ 3.05536 1 0 ack 40 ------- 0 2.0 0.0 39 96
- 3.05536 1 0 ack 40 ------- 0 2.0 0.0 39 96
r 3.0648 0 1 tcp 1540 ------- 0 0.0 2.0 41 95
+ 3.0648 1 2 tcp 1540 ------- 0 0.0 2.0 41 95
- 3.0648 1 2 tcp 1540 ------- 0 0.0 2.0 41 95
r 3.0664 1 0 ack 40 ------- 0 2.0 0.0 37 93
+ 3.0664 0 1 tcp 1540 ------- 0 0.0 2.0 44 100
- 3.0664 0 1 tcp 1540 ------- 0 0.0 2.0 44 100
r 3.08 2 1 ack 40 ------- 0 2.0 0.0 40 98
+ 3.08 1 0 ack 40 ------- 0 2.0 0.0 40 98
- 3.08 1 0 ack 40 ------- 0 2.0 0.0 40 98
r 3.08944 0 1 tcp 1540 ------- 0 0.0 2.0 42 97
+ 3.08944 1 2 tcp 1540 ------- 0 0.0 2.0 42 97
- 3.08944 1 2 tcp 1540 ------- 0 0.0 2.0 42 97
r 3.09104 1 0 ack 40 ------- 0 2.0 0.0 38 94
+ 3.09104 0 1 tcp 1540 ------- 0 0.0 2.0 45 101
- 3.09104 0 1 tcp 1540 ------- 0 0.0 2.0 45 101
r 3.11408 0 1 tcp 1540 ------- 0 0.0 2.0 43 99
+ 3.11408 1 2 tcp 1540 ------- 0 0.0 2.0 43 99
- 3.11408 1 2 tcp 1540 ------- 0 0.0 2.0 43 99
r 3.11568 1 0 ack 40 ------- 0 2.0 0.0 39 96
+ 3.11568 0 1 tcp 1540 ------- 0 0.0 2.0 46 102
- 3.11568 0 1 tcp 1540 ------- 0 0.0 2.0 46 102
+ 3.11568 0 1 tcp 1540 ------- 0 0.0 2.0 47 103
- 3.128 0 1 tcp 1540 ------- 0 0.0 2.0 47 103
r 3.13872 0 1 tcp 1540 ------- 0 0.0 2.0 44 100
+ 3.13872 1 2 tcp 1540 ------- 0 0.0 2.0 44 100
- 3.13872 1 2 tcp 1540 ------- 0 0.0 2.0 44 100
r 3.14032 1 0 ack 40 ------- 0 2.0 0.0 40 98
+ 3.14032 0 1 tcp 1540 ------- 0 0.0 2.0 48 104
- 3.14032 0 1 tcp 1540 ------- 0 0.0 2.0 48 104
r 3.14944 1 2 tcp 1540 ------- 0 0.0 2.0 41 95
+ 3.14944 2 1 ack 40 ------- 0 2.0 0.0 41 105
- 3.14944 2 1 ack 40 ------- 0 2.0 0.0 41 105
r 3.16336 0 1 tcp 1540 ------- 0 0.0 2.0 45 101
+ 3.16336 1 2 tcp 1540 ------- 0 0.0 2.0 45 101
- 3.16336 1 2 tcp 1540 ------- 0 0.0 2.0 45 101
r 3.17408 1 2 tcp 1540 ------- 0 0.0 2.0 42 97
+ 3.17408 2 1 ack 40 ------- 0 2.0 0.0 42 106
- 3.17408 2 1 ack 40 ------- 0 2.0 0.0 42 106
r 3.188 0 1 tcp 1540 ------- 0 0.0 2.0 46 102
+ 3.188 1 2 tcp 1540 ------- 0 0.0 2.0 46 102
- 3.188 1 2 tcp 1540 ------- 0 0.0 2.0 46 102
r 3.19872 1 2 tcp 1540 ------- 0 0.0 2.0 43 99
+ 3.19872 2 1 ack 40 ------- 0 2.0 0.0 43 107
- 3.19872 2 1 ack 40 ------- 0 2.0 0.0 43 107
r 3.20032 0 1 tcp 1540 ------- 0 0.0 2.0 47 103
+ 3.20032 1 2 tcp 1540 ------- 0 0.0 2.0 47 103
r 3.21008 2 1 ack 40 ------- 0 2.0 0.0 41 105
+ 3.21008 1 0 ack 40 ------- 0 2.0 0.0 41 105
- 3.21008 1 0 ack 40 ------- 0 2.0 0.0 41 105
r 3.21264 0 1 tcp 1540 ------- 0 0.0 2.0 48 104
+ 3.21264 1 2 tcp 1540 ------- 0 0.0 2.0 48 104
- 3.21264 1 2 tcp 1540 ------- 0 0.0 2.0 47 103
r 3.22336 1 2 tcp 1540 ------- 0 0.0 2.0 44 100
+ 3.22336 2 1 ack 40 ------- 0 2.0 0.0 44 108
- 3.22336 2 1 ack 40 ------- 0 2.0 0.0 44 108
r 3.23472 2 1 ack 40 ------- 0 2.0 0.0 42 106
+ 3.23472 1 0 ack 40 ------- 0 2.0 0.0 42 106
- 3.23472 1 0 ack 40 ------- 0 2.0 0.0 42 106
- 3.23728 1 2 tcp 1540 ------- 0 0.0 2.0 48 104
r 3.248 1 2 tcp 1540 ------- 0 0.0 2.0 45 101
+ 3.248 2 1 ack 40 ------- 0 2.0 0.0 45 109
- 3.248 2 1 ack 40 ------- 0 2.0 0.0 45 109
r 3.25936 2 1 ack 40 ------- 0 2.0 0.0 43 107
+ 3.25936 1 0 ack 40 ------- 0 2.0 0.0 43 107
- 3.25936 1 0 ack 40 ------- 0 2.0 0.0 43 107
r 3.2704 1 0 ack 40 ------- 0 2.0 0.0 41 105
+ 3.2704 0 1 tcp 1540 ------- 0 0.0 2.0 49 110
- 3.2704 0 1 tcp 1540 ------- 0 0.0 2.0 49 110
r 3.27264 1 2 tcp 1540 ------- 0 0.0 2.0 46 102
+ 3.27264 2 1 ack 40 ------- 0 2.0 0.0 46 111
- 3.27264 2 1 ack 40 ------- 0 2.0 0.0 46 111
r 3.284 2 1 ack 40 ------- 0 2.0 0.0 44 108
+ 3.284 1 0 ack 40 ------- 0 2.0 0.0 44 108
- 3.284 1 0 ack 40 ------- 0 2.0 0.0 44 108
r 3.29504 1 0 ack 40 ------- 0 2.0 0.0 42 106
+ 3.29504 0 1 tcp 1540 ------- 0 0.0 2.0 50 112
- 3.29504 0 1 tcp 1540 ------- 0 0.0 2.0 50 112
r 3.29728 1 2 tcp 1540 ------- 0 0.0 2.0 47 103
+ 3.29728 2 1 ack 40 ------- 0 2.0 0.0 47 113
- 3.29728 2 1 ack 40 ------- 0 2.0 0.0 47 113
r 3.30864 2 1 ack 40 ------- 0 2.0 0.0 45 109