+ 0.1 0 2 cbr 500 ------- 1 0.0 2.0 0 0
- 0.1 0 2 cbr 500 ------- 1 0.0 2.0 0 0
+ 0.1 1 2 cbr 500 ------- 2 1.0 2.0 0 1
- 0.1 1 2 cbr 500 ------- 2 1.0 2.0 0 1
+ 0.11 0 2 cbr 500 ------- 1 0.0 2.0 1 2
+ 0.11 1 2 cbr 500 ------- 2 1.0 2.0 1 3
+ 0.12 0 2 cbr 500 ------- 1 0.0 2.0 2 4
+ 0.12 1 2 cbr 500 ------- 2 1.0 2.0 2 5
+ 0.13 0 2 cbr 500 ------- 1 0.0 2.0 3 6
+ 0.13 1 2 cbr 500 ------- 2 1.0 2.0 3 7
+ 0.14 0 2 cbr 500 ------- 1 0.0 2.0 4 8
+ 0.14 1 2 cbr 500 ------- 2 1.0 2.0 4 9
+ 0.15 0 2 cbr 500 ------- 1 0.0 2.0 5 10
+ 0.15 1 2 cbr 500 ------- 2 1.0 2.0 5 11
+ 0.16 0 2 cbr 500 ------- 1 0.0 2.0 6 12
+ 0.16 1 2 cbr 500 ------- 2 1.0 2.0 6 13
+ 0.17 0 2 cbr 500 ------- 1 0.0 2.0 7 14
+ 0.17 1 2 cbr 500 ------- 2 1.0 2.0 7 15
+ 0.18 0 2 cbr 500 ------- 1 0.0 2.0 8 16
+ 0.18 1 2 cbr 500 ------- 2 1.0 2.0 8 17
+ 0.19 0 2 cbr 500 ------- 1 0.0 2.0 9 18
+ 0.19 1 2 cbr 500 ------- 2 1.0 2.0 9 19
+ 0.2 0 2 cbr 500 ------- 1 0.0 2.0 10 20
+ 0.2 1 2 cbr 500 ------- 2 1.0 2.0 10 21
+ 0.21 0 2 cbr 500 ------- 1 0.0 2.0 11 22
+ 0.21 1 2 cbr 500 ------- 2 1.0 2.0 11 23
+ 0.22 0 2 cbr 500 ------- 1 0.0 2.0 12 24
+ 0.22 1 2 cbr 500 ------- 2 1.0 2.0 12 25
+ 0.23 0 2 cbr 500 ------- 1 0.0 2.0 13 26
+ 0.23 1 2 cbr 500 ------- 2 1.0 2.0 13 27
+ 0.24 0 2 cbr 500 ------- 1 0.0 2.0 14 28
+ 0.24 1 2 cbr 500 ------- 2 1.0 2.0 14 29
+ 0.25 0 2 cbr 500 ------- 1 0.0 2.0 15 30
+ 0.25 1 2 cbr 500 ------- 2 1.0 2.0 15 31
+ 0.26 0 2 cbr 500 ------- 1 0.0 2.0 16 32
+ 0.26 1 2 cbr 500 ------- 2 1.0 2.0 16 33
+ 0.27 0 2 cbr 500 ------- 1 0.0 2.0 17 34
+ 0.27 1 2 cbr 500 ------- 2 1.0 2.0 17 35
+ 0.28 0 2 cbr 500 ------- 1 0.0 2.0 18 36
+ 0.28 1 2 cbr 500 ------- 2 1.0 2.0 18 37
+ 0.29 0 2 cbr 500 ------- 1 0.0 2.0 19 38
+ 0.29 1 2 cbr 500 ------- 2 1.0 2.0 19 39
+ 0.3 0 2 cbr 500 ------- 1 0.0 2.0 20 40
+ 0.3 1 2 cbr 500 ------- 2 1.0 2.0 20 41
+ 0.31 0 2 cbr 500 ------- 1 0.0 2.0 21 42
+ 0.31 1 2 cbr 500 ------- 2 1.0 2.0 21 43
+ 0.32 0 2 cbr 500 ------- 1 0.0 2.0 22 44
+ 0.32 1 2 cbr 500 ------- 2 1.0 2.0 22 45
+ 0.33 0 2 cbr 500 ------- 1 0.0 2.0 23 46
+ 0.33 1 2 cbr 500 ------- 2 1.0 2.0 23 47
+ 0.34 0 2 cbr 500 ------- 1 0.0 2.0 24 48
+ 0.34 1 2 cbr 500 ------- 2 1.0 2.0 24 49
+ 0.35 0 2 cbr 500 ------- 1 0.0 2.0 25 50
+ 0.35 1 2 cbr 500 ------- 2 1.0 2.0 25 51
+ 0.36 0 2 cbr 500 ------- 1 0.0 2.0 26 52
+ 0.36 1 2 cbr 500 ------- 2 1.0 2.0 26 53
+ 0.37 0 2 cbr 500 ------- 1 0.0 2.0 27 54
+ 0.37 1 2 cbr 500 ------- 2 1.0 2.0 27 55
+ 0.38 0 2 cbr 500 ------- 1 0.0 2.0 28 56
+ 0.38 1 2 cbr 500 ------- 2 1.0 2.0 28 57
+ 0.39 0 2 cbr 500 ------- 1 0.0 2.0 29 58
+ 0.39 1 2 cbr 500 ------- 2 1.0 2.0 29 59
+ 0.4 0 2 cbr 500 ------- 1 0.0 2.0 30 60
+ 0.4 1 2 cbr 500 ------- 2 1.0 2.0 30 61
+ 0.41 0 2 cbr 500 ------- 1 0.0 2.0 31 62
+ 0.41 1 2 cbr 500 ------- 2 1.0 2.0 31 63
+ 0.42 0 2 cbr 500 ------- 1 0.0 2.0 32 64
+ 0.42 1 2 cbr 500 ------- 2 1.0 2.0 32 65
+ 0.43 0 2 cbr 500 ------- 1 0.0 2.0 33 66
+ 0.43 1 2 cbr 500 ------- 2 1.0 2.0 33 67
+ 0.44 0 2 cbr 500 ------- 1 0.0 2.0 34 68
+ 0.44 1 2 cbr 500 ------- 2 1.0 2.0 34 69
+ 0.45 0 2 cbr 500 ------- 1 0.0 2.0 35 70
+ 0.45 1 2 cbr 500 ------- 2 1.0 2.0 35 71
+ 0.46 0 2 cbr 500 ------- 1 0.0 2.0 36 72
+ 0.46 1 2 cbr 500 ------- 2 1.0 2.0 36 73
+ 0.47 0 2 cbr 500 ------- 1 0.0 2.0 37 74
+ 0.47 1 2 cbr 500 ------- 2 1.0 2.0 37 75
+ 0.48 0 2 cbr 500 ------- 1 0.0 2.0 38 76
+ 0.48 1 2 cbr 500 ------- 2 1.0 2.0 38 77
+ 0.49 0 2 cbr 500 ------- 1 0.0 2.0 39 78
+ 0.49 1 2 cbr 500 ------- 2 1.0 2.0 39 79
- 0.5 0 2 cbr 500 ------- 1 0.0 2.0 1 2
- 0.5 1 2 cbr 500 ------- 2 1.0 2.0 1 3
+ 0.5 0 2 cbr 500 ------- 1 0.0 2.0 40 80
+ 0.5 1 2 cbr 500 ------- 2 1.0 2.0 40 81
r 0.51 1 2 cbr 500 ------- 2 1.0 2.0 0 1
+ 0.51 0 2 cbr 500 ------- 1 0.0 2.0 41 82
+ 0.51 1 2 cbr 500 ------- 2 1.0 2.0 41 83
+ 0.52 0 2 cbr 500 ------- 1 0.0 2.0 42 84
+ 0.52 1 2 cbr 500 ------- 2 1.0 2.0 42 85
+ 0.53 0 2 cbr 500 ------- 1 0.0 2.0 43 86
+ 0.53 1 2 cbr 500 ------- 2 1.0 2.0 43 87
+ 0.54 0 2 cbr 500 ------- 1 0.0 2.0 44 88
+ 0.54 1 2 cbr 500 ------- 2 1.0 2.0 44 89
+ 0.55 0 2 cbr 500 ------- 1 0.0 2.0 45 90
+ 0.55 1 2 cbr 500 ------- 2 1.0 2.0 45 91
+ 0.56 0 2 cbr 500 ------- 1 0.0 2.0 46 92
+ 0.56 1 2 cbr 500 ------- 2 1.0 2.0 46 93
+ 0.57 0 2 cbr 500 ------- 1 0.0 2.0 47 94
+ 0.57 1 2 cbr 500 ------- 2 1.0 2.0 47 95
+ 0.58 0 2 cbr 500 ------- 1 0.0 2.0 48 96
+ 0.58 1 2 cbr 500 ------- 2 1.0 2.0 48 97
+ 0.59 0 2 cbr 500 ------- 1 0.0 2.0 49 98
+ 0.59 1 2 cbr 500 ------- 2 1.0 2.0 49 99
r 0.6 0 2 cbr 500 ------- 1 0.0 2.0 0 0
+ 0.6 0 2 cbr 500 ------- 1 0.0 2.0 50 100
+ 0.6 1 2 cbr 500 ------- 2 1.0 2.0 50 101
+ 0.61 0 2 cbr 500 ------- 1 0.0 2.0 51 102
d 0.61 0 2 cbr 500 ------- 1 0.0 2.0 51 102
+ 0.61 1 2 cbr 500 ------- 2 1.0 2.0 51 103
d 0.61 1 2 cbr 500 ------- 2 1.0 2.0 51 103
+ 0.62 0 2 cbr 500 ------- 1 0.0 2.0 52 104
d 0.62 0 2 cbr 500 ------- 1 0.0 2.0 52 104
+ 0.62 1 2 cbr 500 ------- 2 1.0 2.0 52 105
d 0.62 1 2 cbr 500 ------- 2 1.0 2.0 52 105
+ 0.63 0 2 cbr 500 ------- 1 0.0 2.0 53 106
d 0.63 0 2 cbr 500 ------- 1 0.0 2.0 53 106
+ 0.63 1 2 cbr 500 ------- 2 1.0 2.0 53 107
d 0.63 1 2 cbr 500 ------- 2 1.0 2.0 53 107
+ 0.64 0 2 cbr 500 ------- 1 0.0 2.0 54 108
d 0.64 0 2 cbr 500 ------- 1 0.0 2.0 54 108
+ 0.64 1 2 cbr 500 ------- 2 1.0 2.0 54 109
d 0.64 1 2 cbr 500 ------- 2 1.0 2.0 54 109
+ 0.65 0 2 cbr 500 ------- 1 0.0 2.0 55 110
d 0.65 0 2 cbr 500 ------- 1 0.0 2.0 55 110
+ 0.65 1 2 cbr 500 ------- 2 1.0 2.0 55 111
d 0.65 1 2 cbr 500 ------- 2 1.0 2.0 55 111
+ 0.66 0 2 cbr 500 ------- 1 0.0 2.0 56 112
d 0.66 0 2 cbr 500 ------- 1 0.0 2.0 56 112
+ 0.66 1 2 cbr 500 ------- 2 1.0 2.0 56 113
d 0.66 1 2 cbr 500 ------- 2 1.0 2.0 56 113
+ 0.67 0 2 cbr 500 ------- 1 0.0 2.0 57 114
d 0.67 0 2 cbr 500 ------- 1 0.0 2.0 57 114
+ 0.67 1 2 cbr 500 ------- 2 1.0 2.0 57 115
d 0.67 1 2 cbr 500 ------- 2 1.0 2.0 57 115
+ 0.68 0 2 cbr 500 ------- 1 0.0 2.0 58 116
d 0.68 0 2 cbr 500 ------- 1 0.0 2.0 58 116
+ 0.68 1 2 cbr 500 ------- 2 1.0 2.0 58 117
d 0.68 1 2 cbr 500 ------- 2 1.0 2.0 58 117
+ 0.69 0 2 cbr 500 ------- 1 0.0 2.0 59 118
d 0.69 0 2 cbr 500 ------- 1 0.0 2.0 59 118
+ 0.69 1 2 cbr 500 ------- 2 1.0 2.0 59 119
d 0.69 1 2 cbr 500 ------- 2 1.0 2.0 59 119
+ 0.7 0 2 cbr 500 ------- 1 0.0 2.0 60 120
d 0.7 0 2 cbr 500 ------- 1 0.0 2.0 60 120
+ 0.7 1 2 cbr 500 ------- 2 1.0 2.0 60 121
d 0.7 1 2 cbr 500 ------- 2 1.0 2.0 60 121
+ 0.71 0 2 cbr 500 ------- 1 0.0 2.0 61 122
d 0.71 0 2 cbr 500 ------- 1 0.0 2.0 61 122
+ 0.71 1 2 cbr 500 ------- 2 1.0 2.0 61 123
d 0.71 1 2 cbr 500 ------- 2 1.0 2.0 61 123
+ 0.72 0 2 cbr 500 ------- 1 0.0 2.0 62 124
d 0.72 0 2 cbr 500 ------- 1 0.0 2.0 62 124
+ 0.72 1 2 cbr 500 ------- 2 1.0 2.0 62 125
d 0.72 1 2 cbr 500 ------- 2 1.0 2.0 62 125
+ 0.73 0 2 cbr 500 ------- 1 0.0 2.0 63 126
d 0.73 0 2 cbr 500 ------- 1 0.0 2.0 63 126
+ 0.73 1 2 cbr 500 ------- 2 1.0 2.0 63 127
d 0.73 1 2 cbr 500 ------- 2 1.0 2.0 63 127
+ 0.74 0 2 cbr 500 ------- 1 0.0 2.0 64 128
d 0.74 0 2 cbr 500 ------- 1 0.0 2.0 64 128
+ 0.74 1 2 cbr 500 ------- 2 1.0 2.0 64 129
d 0.74 1 2 cbr 500 ------- 2 1.0 2.0 64 129
+ 0.75 0 2 cbr 500 ------- 1 0.0 2.0 65 130
d 0.75 0 2 cbr 500 ------- 1 0.0 2.0 65 130
+ 0.75 1 2 cbr 500 ------- 2 1.0 2.0 65 131
d 0.75 1 2 cbr 500 ------- 2 1.0 2.0 65 131
+ 0.76 0 2 cbr 500 ------- 1 0.0 2.0 66 132
d 0.76 0 2 cbr 500 ------- 1 0.0 2.0 66 132
+ 0.76 1 2 cbr 500 ------- 2 1.0 2.0 66 133
d 0.76 1 2 cbr 500 ------- 2 1.0 2.0 66 133
+ 0.77 0 2 cbr 500 ------- 1 0.0 2.0 67 134
d 0.77 0 2 cbr 500 ------- 1 0.0 2.0 67 134
+ 0.77 1 2 cbr 500 ------- 2 1.0 2.0 67 135
d 0.77 1 2 cbr 500 ------- 2 1.0 2.0 67 135
+ 0.78 0 2 cbr 500 ------- 1 0.0 2.0 68 136
d 0.78 0 2 cbr 500 ------- 1 0.0 2.0 68 136
+ 0.78 1 2 cbr 500 ------- 2 1.0 2.0 68 137
d 0.78 1 2 cbr 500 ------- 2 1.0 2.0 68 137
+ 0.79 0 2 cbr 500 ------- 1 0.0 2.0 69 138
d 0.79 0 2 cbr 500 ------- 1 0.0 2.0 69 138
+ 0.79 1 2 cbr 500 ------- 2 1.0 2.0 69 139
d 0.79 1 2 cbr 500 ------- 2 1.0 2.0 69 139
+ 0.8 0 2 cbr 500 ------- 1 0.0 2.0 70 140
d 0.8 0 2 cbr 500 ------- 1 0.0 2.0 70 140
+ 0.8 1 2 cbr 500 ------- 2 1.0 2.0 70 141
d 0.8 1 2 cbr 500 ------- 2 1.0 2.0 70 141
+ 0.81 0 2 cbr 500 ------- 1 0.0 2.0 71 142
d 0.81 0 2 cbr 500 ------- 1 0.0 2.0 71 142
+ 0.81 1 2 cbr 500 ------- 2 1.0 2.0 71 143
d 0.81 1 2 cbr 500 ------- 2 1.0 2.0 71 143
+ 0.82 0 2 cbr 500 ------- 1 0.0 2.0 72 144
d 0.82 0 2 cbr 500 ------- 1 0.0 2.0 72 144
+ 0.82 1 2 cbr 500 ------- 2 1.0 2.0 72 145
d 0.82 1 2 cbr 500 ------- 2 1.0 2.0 72 145
+ 0.83 0 2 cbr 500 ------- 1 0.0 2.0 73 146
d 0.83 0 2 cbr 500 ------- 1 0.0 2.0 73 146
+ 0.83 1 2 cbr 500 ------- 2 1.0 2.0 73 147
d 0.83 1 2 cbr 500 ------- 2 1.0 2.0 73 147
+ 0.84 0 2 cbr 500 ------- 1 0.0 2.0 74 148
d 0.84 0 2 cbr 500 ------- 1 0.0 2.0 74 148
+ 0.84 1 2 cbr 500 ------- 2 1.0 2.0 74 149
d 0.84 1 2 cbr 500 ------- 2 1.0 2.0 74 149
+ 0.85 0 2 cbr 500 ------- 1 0.0 2.0 75 150
d 0.85 0 2 cbr 500 ------- 1 0.0 2.0 75 150
+ 0.85 1 2 cbr 500 ------- 2 1.0 2.0 75 151
d 0.85 1 2 cbr 500 ------- 2 1.0 2.0 75 151
+ 0.86 0 2 cbr 500 ------- 1 0.0 2.0 76 152
d 0.86 0 2 cbr 500 ------- 1 0.0 2.0 76 152
+ 0.86 1 2 cbr 500 ------- 2 1.0 2.0 76 153
d 0.86 1 2 cbr 500 ------- 2 1.0 2.0 76 153
+ 0.87 0 2 cbr 500 ------- 1 0.0 2.0 77 154
d 0.87 0 2 cbr 500 ------- 1 0.0 2.0 77 154
+ 0.87 1 2 cbr 500 ------- 2 1.0 2.0 77 155
d 0.87 1 2 cbr 500 ------- 2 1.0 2.0 77 155
+ 0.88 0 2 cbr 500 ------- 1 0.0 2.0 78 156
d 0.88 0 2 cbr 500 ------- 1 0.0 2.0 78 156
+ 0.88 1 2 cbr 500 ------- 2 1.0 2.0 78 157
d 0.88 1 2 cbr 500 ------- 2 1.0 2.0 78 157
+ 0.89 0 2 cbr 500 ------- 1 0.0 2.0 79 158
d 0.89 0 2 cbr 500 ------- 1 0.0 2.0 79 158
+ 0.89 1 2 cbr 500 ------- 2 1.0 2.0 79 159
d 0.89 1 2 cbr 500 ------- 2 1.0 2.0 79 159
- 0.9 0 2 cbr 500 ------- 1 0.0 2.0 2 4
- 0.9 1 2 cbr 500 ------- 2 1.0 2.0 2 5
+ 0.9 0 2 cbr 500 ------- 1 0.0 2.0 80 160
+ 0.9 1 2 cbr 500 ------- 2 1.0 2.0 80 161
r 0.91 1 2 cbr 500 ------- 2 1.0 2.0 1 3
+ 0.91 0 2 cbr 500 ------- 1 0.0 2.0 81 162
d 0.91 0 2 cbr 500 ------- 1 0.0 2.0 81 162
+ 0.91 1 2 cbr 500 ------- 2 1.0 2.0 81 163
d 0.91 1 2 cbr 500 ------- 2 1.0 2.0 81 163
+ 0.92 0 2 cbr 500 ------- 1 0.0 2.0 82 164
d 0.92 0 2 cbr 500 ------- 1 0.0 2.0 82 164
+ 0.92 1 2 cbr 500 ------- 2 1.0 2.0 82 165
d 0.92 1 2 cbr 500 ------- 2 1.0 2.0 82 165
+ 0.93 0 2 cbr 500 ------- 1 0.0 2.0 83 166
d 0.93 0 2 cbr 500 ------- 1 0.0 2.0 83 166
+ 0.93 1 2 cbr 500 ------- 2 1.0 2.0 83 167
d 0.93 1 2 cbr 500 ------- 2 1.0 2.0 83 167
+ 0.94 0 2 cbr 500 ------- 1 0.0 2.0 84 168
d 0.94 0 2 cbr 500 ------- 1 0.0 2.0 84 168
+ 0.94 1 2 cbr 500 ------- 2 1.0 2.0 84 169
d 0.94 1 2 cbr 500 ------- 2 1.0 2.0 84 169
+ 0.95 0 2 cbr 500 ------- 1 0.0 2.0 85 170
d 0.95 0 2 cbr 500 ------- 1 0.0 2.0 85 170
+ 0.95 1 2 cbr 500 ------- 2 1.0 2.0 85 171
d 0.95 1 2 cbr 500 ------- 2 1.0 2.0 85 171
+ 0.96 0 2 cbr 500 ------- 1 0.0 2.0 86 172
d 0.96 0 2 cbr 500 ------- 1 0.0 2.0 86 172
+ 0.96 1 2 cbr 500 ------- 2 1.0 2.0 86 173
d 0.96 1 2 cbr 500 ------- 2 1.0 2.0 86 173
+ 0.97 0 2 cbr 500 ------- 1 0.0 2.0 87 174
d 0.97 0 2 cbr 500 ------- 1 0.0 2.0 87 174
+ 0.97 1 2 cbr 500 ------- 2 1.0 2.0 87 175
d 0.97 1 2 cbr 500 ------- 2 1.0 2.0 87 175
+ 0.98 0 2 cbr 500 ------- 1 0.0 2.0 88 176
d 0.98 0 2 cbr 500 ------- 1 0.0 2.0 88 176
+ 0.98 1 2 cbr 500 ------- 2 1.0 2.0 88 177
d 0.98 1 2 cbr 500 ------- 2 1.0 2.0 88 177
+ 0.99 0 2 cbr 500 ------- 1 0.0 2.0 89 178
d 0.99 0 2 cbr 500 ------- 1 0.0 2.0 89 178
+ 0.99 1 2 cbr 500 ------- 2 1.0 2.0 89 179
d 0.99 1 2 cbr 500 ------- 2 1.0 2.0 89 179
r 1 0 2 cbr 500 ------- 1 0.0 2.0 1 2
+ 1 0 2 cbr 500 ------- 1 0.0 2.0 90 180
d 1 0 2 cbr 500 ------- 1 0.0 2.0 90 180
+ 1 1 2 cbr 500 ------- 2 1.0 2.0 90 181
d 1 1 2 cbr 500 ------- 2 1.0 2.0 90 181
+ 1.01 0 2 cbr 500 ------- 1 0.0 2.0 91 182
d 1.01 0 2 cbr 500 ------- 1 0.0 2.0 91 182
+ 1.01 1 2 cbr 500 ------- 2 1.0 2.0 91 183
d 1.01 1 2 cbr 500 ------- 2 1.0 2.0 91 183
+ 1.02 0 2 cbr 500 ------- 1 0.0 2.0 92 184
d 1.02 0 2 cbr 500 ------- 1 0.0 2.0 92 184
+ 1.02 1 2 cbr 500 ------- 2 1.0 2.0 92 185
d 1.02 1 2 cbr 500 ------- 2 1.0 2.0 92 185
+ 1.03 0 2 cbr 500 ------- 1 0.0 2.0 93 186
d 1.03 0 2 cbr 500 ------- 1 0.0 2.0 93 186
+ 1.03 1 2 cbr 500 ------- 2 1.0 2.0 93 187
d 1.03 1 2 cbr 500 ------- 2 1.0 2.0 93 187
+ 1.04 0 2 cbr 500 ------- 1 0.0 2.0 94 188
d 1.04 0 2 cbr 500 ------- 1 0.0 2.0 94 188
+ 1.04 1 2 cbr 500 ------- 2 1.0 2.0 94 189
d 1.04 1 2 cbr 500 ------- 2 1.0 2.0 94 189
+ 1.05 0 2 cbr 500 ------- 1 0.0 2.0 95 190
d 1.05 0 2 cbr 500 ------- 1 0.0 2.0 95 190
+ 1.05 1 2 cbr 500 ------- 2 1.0 2.0 95 191
d 1.05 1 2 cbr 500 ------- 2 1.0 2.0 95 191
+ 1.06 0 2 cbr 500 ------- 1 0.0 2.0 96 192
d 1.06 0 2 cbr 500 ------- 1 0.0 2.0 96 192
+ 1.06 1 2 cbr 500 ------- 2 1.0 2.0 96 193
d 1.06 1 2 cbr 500 ------- 2 1.0 2.0 96 193
+ 1.07 0 2 cbr 500 ------- 1 0.0 2.0 97 194
d 1.07 0 2 cbr 500 ------- 1 0.0 2.0 97 194
+ 1.07 1 2 cbr 500 ------- 2 1.0 2.0 97 195
d 1.07 1 2 cbr 500 ------- 2 1.0 2.0 97 195
+ 1.08 0 2 cbr 500 ------- 1 0.0 2.0 98 196
d 1.08 0 2 cbr 500 ------- 1 0.0 2.0 98 196
+ 1.08 1 2 cbr 500 ------- 2 1.0 2.0 98 197
d 1.08 1 2 cbr 500 ------- 2 1.0 2.0 98 197
+ 1.09 0 2 cbr 500 ------- 1 0.0 2.0 99 198
d 1.09 0 2 cbr 500 ------- 1 0.0 2.0 99 198
+ 1.09 1 2 cbr 500 ------- 2 1.0 2.0 99 199
d 1.09 1 2 cbr 500 ------- 2 1.0 2.0 99 199
+ 1.1 0 2 cbr 500 ------- 1 0.0 2.0 100 200
d 1.1 0 2 cbr 500 ------- 1 0.0 2.0 100 200
+ 1.1 1 2 cbr 500 ------- 2 1.0 2.0 100 201
d 1.1 1 2 cbr 500 ------- 2 1.0 2.0 100 201
+ 1.11 0 2 cbr 500 ------- 1 0.0 2.0 101 202
d 1.11 0 2 cbr 500 ------- 1 0.0 2.0 101 202
+ 1.11 1 2 cbr 500 ------- 2 1.0 2.0 101 203
d 1.11 1 2 cbr 500 ------- 2 1.0 2.0 101 203
+ 1.12 0 2 cbr 500 ------- 1 0.0 2.0 102 204
d 1.12 0 2 cbr 500 ------- 1 0.0 2.0 102 204
+ 1.12 1 2 cbr 500 ------- 2 1.0 2.0 102 205
d 1.12 1 2 cbr 500 ------- 2 1.0 2.0 102 205
+ 1.13 0 2 cbr 500 ------- 1 0.0 2.0 103 206
d 1.13 0 2 cbr 500 ------- 1 0.0 2.0 103 206
+ 1.13 1 2 cbr 500 ------- 2 1.0 2.0 103 207
d 1.13 1 2 cbr 500 ------- 2 1.0 2.0 103 207
+ 1.14 0 2 cbr 500 ------- 1 0.0 2.0 104 208
d 1.14 0 2 cbr 500 ------- 1 0.0 2.0 104 208
+ 1.14 1 2 cbr 500 ------- 2 1.0 2.0 104 209
d 1.14 1 2 cbr 500 ------- 2 1.0 2.0 104 209
+ 1.15 0 2 cbr 500 ------- 1 0.0 2.0 105 210
d 1.15 0 2 cbr 500 ------- 1 0.0 2.0 105 210
+ 1.15 1 2 cbr 500 ------- 2 1.0 2.0 105 211
d 1.15 1 2 cbr 500 ------- 2 1.0 2.0 105 211
+ 1.16 0 2 cbr 500 ------- 1 0.0 2.0 106 212
d 1.16 0 2 cbr 500 ------- 1 0.0 2.0 106 212
+ 1.16 1 2 cbr 500 ------- 2 1.0 2.0 106 213
d 1.16 1 2 cbr 500 ------- 2 1.0 2.0 106 213
+ 1.17 0 2 cbr 500 ------- 1 0.0 2.0 107 214
d 1.17 0 2 cbr 500 ------- 1 0.0 2.0 107 214
+ 1.17 1 2 cbr 500 ------- 2 1.0 2.0 107 215
d 1.17 1 2 cbr 500 ------- 2 1.0 2.0 107 215
+ 1.18 0 2 cbr 500 ------- 1 0.0 2.0 108 216
d 1.18 0 2 cbr 500 ------- 1 0.0 2.0 108 216
+ 1.18 1 2 cbr 500 ------- 2 1.0 2.0 108 217
d 1.18 1 2 cbr 500 ------- 2 1.0 2.0 108 217
+ 1.19 0 2 cbr 500 ------- 1 0.0 2.0 109 218
d 1.19 0 2 cbr 500 ------- 1 0.0 2.0 109 218
+ 1.19 1 2 cbr 500 ------- 2 1.0 2.0 109 219
d 1.19 1 2 cbr 500 ------- 2 1.0 2.0 109 219
+ 1.2 0 2 cbr 500 ------- 1 0.0 2.0 110 220
d 1.2 0 2 cbr 500 ------- 1 0.0 2.0 110 220
+ 1.2 1 2 cbr 500 ------- 2 1.0 2.0 110 221
d 1.2 1 2 cbr 500 ------- 2 1.0 2.0 110 221
+ 1.21 0 2 cbr 500 ------- 1 0.0 2.0 111 222
d 1.21 0 2 cbr 500 ------- 1 0.0 2.0 111 222
+ 1.21 1 2 cbr 500 ------- 2 1.0 2.0 111 223
d 1.21 1 2 cbr 500 ------- 2 1.0 2.0 111 223
+ 1.22 0 2 cbr 500 ------- 1 0.0 2.0 112 224
d 1.22 0 2 cbr 500 ------- 1 0.0 2.0 112 224
+ 1.22 1 2 cbr 500 ------- 2 1.0 2.0 112 225
d 1.22 1 2 cbr 500 ------- 2 1.0 2.0 112 225
+ 1.23 0 2 cbr 500 ------- 1 0.0 2.0 113 226
d 1.23 0 2 cbr 500 ------- 1 0.0 2.0 113 226
+ 1.23 1 2 cbr 500 ------- 2 1.0 2.0 113 227
d 1.23 1 2 cbr 500 ------- 2 1.0 2.0 113 227
+ 1.24 0 2 cbr 500 ------- 1 0.0 2.0 114 228
d 1.24 0 2 cbr 500 ------- 1 0.0 2.0 114 228
+ 1.24 1 2 cbr 500 ------- 2 1.0 2.0 114 229
d 1.24 1 2 cbr 500 ------- 2 1.0 2.0 114 229
+ 1.25 0 2 cbr 500 ------- 1 0.0 2.0 115 230
d 1.25 0 2 cbr 500 ------- 1 0.0 2.0 115 230
+ 1.25 1 2 cbr 500 ------- 2 1.0 2.0 115 231
d 1.25 1 2 cbr 500 ------- 2 1.0 2.0 115 231
+ 1.26 0 2 cbr 500 ------- 1 0.0 2.0 116 232
d 1.26 0 2 cbr 500 ------- 1 0.0 2.0 116 232
+ 1.26 1 2 cbr 500 ------- 2 1.0 2.0 116 233
d 1.26 1 2 cbr 500 ------- 2 1.0 2.0 116 233
+ 1.27 0 2 cbr 500 ------- 1 0.0 2.0 117 234
d 1.27 0 2 cbr 500 ------- 1 0.0 2.0 117 234
+ 1.27 1 2 cbr 500 ------- 2 1.0 2.0 117 235
d 1.27 1 2 cbr 500 ------- 2 1.0 2.0 117 235
+ 1.28 0 2 cbr 500 ------- 1 0.0 2.0 118 236
d 1.28 0 2 cbr 500 ------- 1 0.0 2.0 118 236
+ 1.28 1 2 cbr 500 ------- 2 1.0 2.0 118 237
d 1.28 1 2 cbr 500 ------- 2 1.0 2.0 118 237
+ 1.29 0 2 cbr 500 ------- 1 0.0 2.0 119 238
d 1.29 0 2 cbr 500 ------- 1 0.0 2.0 119 238
+ 1.29 1 2 cbr 500 ------- 2 1.0 2.0 119 239
d 1.29 1 2 cbr 500 ------- 2 1.0 2.0 119 239
- 1.3 0 2 cbr 500 ------- 1 0.0 2.0 3 6
- 1.3 1 2 cbr 500 ------- 2 1.0 2.0 3 7
+ 1.3 0 2 cbr 500 ------- 1 0.0 2.0 120 240
+ 1.3 1 2 cbr 500 ------- 2 1.0 2.0 120 241
r 1.31 1 2 cbr 500 ------- 2 1.0 2.0 2 5
+ 1.31 0 2 cbr 500 ------- 1 0.0 2.0 121 242
d 1.31 0 2 cbr 500 ------- 1 0.0 2.0 121 242
+ 1.31 1 2 cbr 500 ------- 2 1.0 2.0 121 243
d 1.31 1 2 cbr 500 ------- 2 1.0 2.0 121 243
+ 1.32 0 2 cbr 500 ------- 1 0.0 2.0 122 244
d 1.32 0 2 cbr 500 ------- 1 0.0 2.0 122 244
+ 1.32 1 2 cbr 500 ------- 2 1.0 2.0 122 245
d 1.32 1 2 cbr 500 ------- 2 1.0 2.0 122 245
+ 1.33 0 2 cbr 500 ------- 1 0.0 2.0 123 246
d 1.33 0 2 cbr 500 ------- 1 0.0 2.0 123 246
+ 1.33 1 2 cbr 500 ------- 2 1.0 2.0 123 247
d 1.33 1 2 cbr 500 ------- 2 1.0 2.0 123 247
+ 1.34 0 2 cbr 500 ------- 1 0.0 2.0 124 248
d 1.34 0 2 cbr 500 ------- 1 0.0 2.0 124 248
+ 1.34 1 2 cbr 500 ------- 2 1.0 2.0 124 249
d 1.34 1 2 cbr 500 ------- 2 1.0 2.0 124 249
+ 1.35 0 2 cbr 500 ------- 1 0.0 2.0 125 250
d 1.35 0 2 cbr 500 ------- 1 0.0 2.0 125 250
+ 1.35 1 2 cbr 500 ------- 2 1.0 2.0 125 251
d 1.35 1 2 cbr 500 ------- 2 1.0 2.0 125 251
+ 1.36 0 2 cbr 500 ------- 1 0.0 2.0 126 252
d 1.36 0 2 cbr 500 ------- 1 0.0 2.0 126 252
+ 1.36 1 2 cbr 500 ------- 2 1.0 2.0 126 253
d 1.36 1 2 cbr 500 ------- 2 1.0 2.0 126 253
+ 1.37 0 2 cbr 500 ------- 1 0.0 2.0 127 254
d 1.37 0 2 cbr 500 ------- 1 0.0 2.0 127 254
+ 1.37 1 2 cbr 500 ------- 2 1.0 2.0 127 255
d 1.37 1 2 cbr 500 ------- 2 1.0 2.0 127 255
+ 1.38 0 2 cbr 500 ------- 1 0.0 2.0 128 256
d 1.38 0 2 cbr 500 ------- 1 0.0 2.0 128 256
+ 1.38 1 2 cbr 500 ------- 2 1.0 2.0 128 257
d 1.38 1 2 cbr 500 ------- 2 1.0 2.0 128 257
+ 1.39 0 2 cbr 500 ------- 1 0.0 2.0 129 258
d 1.39 0 2 cbr 500 ------- 1 0.0 2.0 129 258
+ 1.39 1 2 cbr 500 ------- 2 1.0 2.0 129 259
d 1.39 1 2 cbr 500 ------- 2 1.0 2.0 129 259
r 1.4 0 2 cbr 500 ------- 1 0.0 2.0 2 4
+ 1.4 0 2 cbr 500 ------- 1 0.0 2.0 130 260
d 1.4 0 2 cbr 500 ------- 1 0.0 2.0 130 260
+ 1.4 1 2 cbr 500 ------- 2 1.0 2.0 130 261
d 1.4 1 2 cbr 500 ------- 2 1.0 2.0 130 261
+ 1.41 0 2 cbr 500 ------- 1 0.0 2.0 131 262
d 1.41 0 2 cbr 500 ------- 1 0.0 2.0 131 262
+ 1.41 1 2 cbr 500 ------- 2 1.0 2.0 131 263
d 1.41 1 2 cbr 500 ------- 2 1.0 2.0 131 263
+ 1.42 0 2 cbr 500 ------- 1 0.0 2.0 132 264
d 1.42 0 2 cbr 500 ------- 1 0.0 2.0 132 264
+ 1.42 1 2 cbr 500 ------- 2 1.0 2.0 132 265
d 1.42 1 2 cbr 500 ------- 2 1.0 2.0 132 265
+ 1.43 0 2 cbr 500 ------- 1 0.0 2.0 133 266
d 1.43 0 2 cbr 500 ------- 1 0.0 2.0 133 266
+ 1.43 1 2 cbr 500 ------- 2 1.0 2.0 133 267
d 1.43 1 2 cbr 500 ------- 2 1.0 2.0 133 267
+ 1.44 0 2 cbr 500 ------- 1 0.0 2.0 134 268
d 1.44 0 2 cbr 500 ------- 1 0.0 2.0 134 268
+ 1.44 1 2 cbr 500 ------- 2 1.0 2.0 134 269
d 1.44 1 2 cbr 500 ------- 2 1.0 2.0 134 269
+ 1.45 0 2 cbr 500 ------- 1 0.0 2.0 135 270
d 1.45 0 2 cbr 500 ------- 1 0.0 2.0 135 270
+ 1.45 1 2 cbr 500 ------- 2 1.0 2.0 135 271
d 1.45 1 2 cbr 500 ------- 2 1.0 2.0 135 271
+ 1.46 0 2 cbr 500 ------- 1 0.0 2.0 136 272
d 1.46 0 2 cbr 500 ------- 1 0.0 2.0 136 272
+ 1.46 1 2 cbr 500 ------- 2 1.0 2.0 136 273
d 1.46 1 2 cbr 500 ------- 2 1.0 2.0 136 273
+ 1.47 0 2 cbr 500 ------- 1 0.0 2.0 137 274
d 1.47 0 2 cbr 500 ------- 1 0.0 2.0 137 274
+ 1.47 1 2 cbr 500 ------- 2 1.0 2.0 137 275
d 1.47 1 2 cbr 500 ------- 2 1.0 2.0 137 275
+ 1.48 0 2 cbr 500 ------- 1 0.0 2.0 138 276
d 1.48 0 2 cbr 500 ------- 1 0.0 2.0 138 276
+ 1.48 1 2 cbr 500 ------- 2 1.0 2.0 138 277
d 1.48 1 2 cbr 500 ------- 2 1.0 2.0 138 277
+ 1.49 0 2 cbr 500 ------- 1 0.0 2.0 139 278
d 1.49 0 2 cbr 500 ------- 1 0.0 2.0 139 278
+ 1.49 1 2 cbr 500 ------- 2 1.0 2.0 139 279
d 1.49 1 2 cbr 500 ------- 2 1.0 2.0 139 279
+ 1.5 0 2 cbr 500 ------- 1 0.0 2.0 140 280
d 1.5 0 2 cbr 500 ------- 1 0.0 2.0 140 280
+ 1.5 1 2 cbr 500 ------- 2 1.0 2.0 140 281
d 1.5 1 2 cbr 500 ------- 2 1.0 2.0 140 281
+ 1.51 0 2 cbr 500 ------- 1 0.0 2.0 141 282
d 1.51 0 2 cbr 500 ------- 1 0.0 2.0 141 282
+ 1.51 1 2 cbr 500 ------- 2 1.0 2.0 141 283
d 1.51 1 2 cbr 500 ------- 2 1.0 2.0 141 283
+ 1.52 0 2 cbr 500 ------- 1 0.0 2.0 142 284
d 1.52 0 2 cbr 500 ------- 1 0.0 2.0 142 284
+ 1.52 1 2 cbr 500 ------- 2 1.0 2.0 142 285
d 1.52 1 2 cbr 500 ------- 2 1.0 2.0 142 285
+ 1.53 0 2 cbr 500 ------- 1 0.0 2.0 143 286
d 1.53 0 2 cbr 500 ------- 1 0.0 2.0 143 286
+ 1.53 1 2 cbr 500 ------- 2 1.0 2.0 143 287
d 1.53 1 2 cbr 500 ------- 2 1.0 2.0 143 287
+ 1.54 0 2 cbr 500 ------- 1 0.0 2.0 144 288
d 1.54 0 2 cbr 500 ------- 1 0.0 2.0 144 288
+ 1.54 1 2 cbr 500 ------- 2 1.0 2.0 144 289
d 1.54 1 2 cbr 500 ------- 2 1.0 2.0 144 289
+ 1.55 0 2 cbr 500 ------- 1 0.0 2.0 145 290
d 1.55 0 2 cbr 500 ------- 1 0.0 2.0 145 290
+ 1.55 1 2 cbr 500 ------- 2 1.0 2.0 145 291
d 1.55 1 2 cbr 500 ------- 2 1.0 2.0 145 291
+ 1.56 0 2 cbr 500 ------- 1 0.0 2.0 146 292
d 1.56 0 2 cbr 500 ------- 1 0.0 2.0 146 292
+ 1.56 1 2 cbr 500 ------- 2 1.0 2.0 146 293
d 1.56 1 2 cbr 500 ------- 2 1.0 2.0 146 293
+ 1.57 0 2 cbr 500 ------- 1 0.0 2.0 147 294
d 1.57 0 2 cbr 500 ------- 1 0.0 2.0 147 294
+ 1.57 1 2 cbr 500 ------- 2 1.0 2.0 147 295
d 1.57 1 2 cbr 500 ------- 2 1.0 2.0 147 295
+ 1.58 0 2 cbr 500 ------- 1 0.0 2.0 148 296
d 1.58 0 2 cbr 500 ------- 1 0.0 2.0 148 296
+ 1.58 1 2 cbr 500 ------- 2 1.0 2.0 148 297
d 1.58 1 2 cbr 500 ------- 2 1.0 2.0 148 297
+ 1.59 0 2 cbr 500 ------- 1 0.0 2.0 149 298
d 1.59 0 2 cbr 500 ------- 1 0.0 2.0 149 298
+ 1.59 1 2 cbr 500 ------- 2 1.0 2.0 149 299
d 1.59 1 2 cbr 500 ------- 2 1.0 2.0 149 299
+ 1.6 0 2 cbr 500 ------- 1 0.0 2.0 150 300
d 1.6 0 2 cbr 500 ------- 1 0.0 2.0 150 300
+ 1.6 1 2 cbr 500 ------- 2 1.0 2.0 150 301
d 1.6 1 2 cbr 500 ------- 2 1.0 2.0 150 301
+ 1.61 0 2 cbr 500 ------- 1 0.0 2.0 151 302
d 1.61 0 2 cbr 500 ------- 1 0.0 2.0 151 302
+ 1.61 1 2 cbr 500 ------- 2 1.0 2.0 151 303
d 1.61 1 2 cbr 500 ------- 2 1.0 2.0 151 303
+ 1.62 0 2 cbr 500 ------- 1 0.0 2.0 152 304
d 1.62 0 2 cbr 500 ------- 1 0.0 2.0 152 304
+ 1.62 1 2 cbr 500 ------- 2 1.0 2.0 152 305
d 1.62 1 2 cbr 500 ------- 2 1.0 2.0 152 305
+ 1.63 0 2 cbr 500 ------- 1 0.0 2.0 153 306
d 1.63 0 2 cbr 500 ------- 1 0.0 2.0 153 306
+ 1.63 1 2 cbr 500 ------- 2 1.0 2.0 153 307
d 1.63 1 2 cbr 500 ------- 2 1.0 2.0 153 307
+ 1.64 0 2 cbr 500 ------- 1 0.0 2.0 154 308
d 1.64 0 2 cbr 500 ------- 1 0.0 2.0 154 308
+ 1.64 1 2 cbr 500 ------- 2 1.0 2.0 154 309
d 1.64 1 2 cbr 500 ------- 2 1.0 2.0 154 309
+ 1.65 0 2 cbr 500 ------- 1 0.0 2.0 155 310
d 1.65 0 2 cbr 500 ------- 1 0.0 2.0 155 310
+ 1.65 1 2 cbr 500 ------- 2 1.0 2.0 155 311
d 1.65 1 2 cbr 500 ------- 2 1.0 2.0 155 311
+ 1.66 0 2 cbr 500 ------- 1 0.0 2.0 156 312
d 1.66 0 2 cbr 500 ------- 1 0.0 2.0 156 312
+ 1.66 1 2 cbr 500 ------- 2 1.0 2.0 156 313
d 1.66 1 2 cbr 500 ------- 2 1.0 2.0 156 313
+ 1.67 0 2 cbr 500 ------- 1 0.0 2.0 157 314
d 1.67 0 2 cbr 500 ------- 1 0.0 2.0 157 314
+ 1.67 1 2 cbr 500 ------- 2 1.0 2.0 157 315
d 1.67 1 2 cbr 500 ------- 2 1.0 2.0 157 315
+ 1.68 0 2 cbr 500 ------- 1 0.0 2.0 158 316
d 1.68 0 2 cbr 500 ------- 1 0.0 2.0 158 316
+ 1.68 1 2 cbr 500 ------- 2 1.0 2.0 158 317
d 1.68 1 2 cbr 500 ------- 2 1.0 2.0 158 317
+ 1.69 0 2 cbr 500 ------- 1 0.0 2.0 159 318
d 1.69 0 2 cbr 500 ------- 1 0.0 2.0 159 318
+ 1.69 1 2 cbr 500 ------- 2 1.0 2.0 159 319
d 1.69 1 2 cbr 500 ------- 2 1.0 2.0 159 319
- 1.7 0 2 cbr 500 ------- 1 0.0 2.0 4 8
- 1.7 1 2 cbr 500 ------- 2 1.0 2.0 4 9
+ 1.7 0 2 cbr 500 ------- 1 0.0 2.0 160 320
+ 1.7 1 2 cbr 500 ------- 2 1.0 2.0 160 321
r 1.71 1 2 cbr 500 ------- 2 1.0 2.0 3 7
+ 1.71 0 2 cbr 500 ------- 1 0.0 2.0 161 322
d 1.71 0 2 cbr 500 ------- 1 0.0 2.0 161 322
+ 1.71 1 2 cbr 500 ------- 2 1.0 2.0 161 323
d 1.71 1 2 cbr 500 ------- 2 1.0 2.0 161 323
+ 1.72 0 2 cbr 500 ------- 1 0.0 2.0 162 324
d 1.72 0 2 cbr 500 ------- 1 0.0 2.0 162 324
+ 1.72 1 2 cbr 500 ------- 2 1.0 2.0 162 325
d 1.72 1 2 cbr 500 ------- 2 1.0 2.0 162 325
+ 1.73 0 2 cbr 500 ------- 1 0.0 2.0 163 326
d 1.73 0 2 cbr 500 ------- 1 0.0 2.0 163 326
+ 1.73 1 2 cbr 500 ------- 2 1.0 2.0 163 327
d 1.73 1 2 cbr 500 ------- 2 1.0 2.0 163 327
+ 1.74 0 2 cbr 500 ------- 1 0.0 2.0 164 328
d 1.74 0 2 cbr 500 ------- 1 0.0 2.0 164 328
+ 1.74 1 2 cbr 500 ------- 2 1.0 2.0 164 329
d 1.74 1 2 cbr 500 ------- 2 1.0 2.0 164 329
+ 1.75 0 2 cbr 500 ------- 1 0.0 2.0 165 330
d 1.75 0 2 cbr 500 ------- 1 0.0 2.0 165 330
+ 1.75 1 2 cbr 500 ------- 2 1.0 2.0 165 331
d 1.75 1 2 cbr 500 ------- 2 1.0 2.0 165 331
+ 1.76 0 2 cbr 500 ------- 1 0.0 2.0 166 332
d 1.76 0 2 cbr 500 ------- 1 0.0 2.0 166 332
+ 1.76 1 2 cbr 500 ------- 2 1.0 2.0 166 333
d 1.76 1 2 cbr 500 ------- 2 1.0 2.0 166 333
+ 1.77 0 2 cbr 500 ------- 1 0.0 2.0 167 334
d 1.77 0 2 cbr 500 ------- 1 0.0 2.0 167 334
+ 1.77 1 2 cbr 500 ------- 2 1.0 2.0 167 335
d 1.77 1 2 cbr 500 ------- 2 1.0 2.0 167 335
+ 1.78 0 2 cbr 500 ------- 1 0.0 2.0 168 336
d 1.78 0 2 cbr 500 ------- 1 0.0 2.0 168 336
+ 1.78 1 2 cbr 500 ------- 2 1.0 2.0 168 337
d 1.78 1 2 cbr 500 ------- 2 1.0 2.0 168 337
+ 1.79 0 2 cbr 500 ------- 1 0.0 2.0 169 338
d 1.79 0 2 cbr 500 ------- 1 0.0 2.0 169 338
+ 1.79 1 2 cbr 500 ------- 2 1.0 2.0 169 339
d 1.79 1 2 cbr 500 ------- 2 1.0 2.0 169 339
r 1.8 0 2 cbr 500 ------- 1 0.0 2.0 3 6
+ 1.8 0 2 cbr 500 ------- 1 0.0 2.0 170 340
d 1.8 0 2 cbr 500 ------- 1 0.0 2.0 170 340
+ 1.8 1 2 cbr 500 ------- 2 1.0 2.0 170 341
d 1.8 1 2 cbr 500 ------- 2 1.0 2.0 170 341
+ 1.81 0 2 cbr 500 ------- 1 0.0 2.0 171 342
d 1.81 0 2 cbr 500 ------- 1 0.0 2.0 171 342
+ 1.81 1 2 cbr 500 ------- 2 1.0 2.0 171 343
d 1.81 1 2 cbr 500 ------- 2 1.0 2.0 171 343
+ 1.82 0 2 cbr 500 ------- 1 0.0 2.0 172 344
d 1.82 0 2 cbr 500 ------- 1 0.0 2.0 172 344
+ 1.82 1 2 cbr 500 ------- 2 1.0 2.0 172 345
d 1.82 1 2 cbr 500 ------- 2 1.0 2.0 172 345
+ 1.83 0 2 cbr 500 ------- 1 0.0 2.0 173 346
d 1.83 0 2 cbr 500 ------- 1 0.0 2.0 173 346
+ 1.83 1 2 cbr 500 ------- 2 1.0 2.0 173 347
d 1.83 1 2 cbr 500 ------- 2 1.0 2.0 173 347
+ 1.84 0 2 cbr 500 ------- 1 0.0 2.0 174 348
d 1.84 0 2 cbr 500 ------- 1 0.0 2.0 174 348
+ 1.84 1 2 cbr 500 ------- 2 1.0 2.0 174 349
d 1.84 1 2 cbr 500 ------- 2 1.0 2.0 174 349
+ 1.85 0 2 cbr 500 ------- 1 0.0 2.0 175 350
d 1.85 0 2 cbr 500 ------- 1 0.0 2.0 175 350
+ 1.85 1 2 cbr 500 ------- 2 1.0 2.0 175 351
d 1.85 1 2 cbr 500 ------- 2 1.0 2.0 175 351
+ 1.86 0 2 cbr 500 ------- 1 0.0 2.0 176 352
d 1.86 0 2 cbr 500 ------- 1 0.0 2.0 176 352
+ 1.86 1 2 cbr 500 ------- 2 1.0 2.0 176 353
d 1.86 1 2 cbr 500 ------- 2 1.0 2.0 176 353
+ 1.87 0 2 cbr 500 ------- 1 0.0 2.0 177 354
d 1.87 0 2 cbr 500 ------- 1 0.0 2.0 177 354
+ 1.87 1 2 cbr 500 ------- 2 1.0 2.0 177 355
d 1.87 1 2 cbr 500 ------- 2 1.0 2.0 177 355
+ 1.88 0 2 cbr 500 ------- 1 0.0 2.0 178 356
d 1.88 0 2 cbr 500 ------- 1 0.0 2.0 178 356
+ 1.88 1 2 cbr 500 ------- 2 1.0 2.0 178 357
d 1.88 1 2 cbr 500 ------- 2 1.0 2.0 178 357
+ 1.89 0 2 cbr 500 ------- 1 0.0 2.0 179 358
d 1.89 0 2 cbr 500 ------- 1 0.0 2.0 179 358
+ 1.89 1 2 cbr 500 ------- 2 1.0 2.0 179 359
d 1.89 1 2 cbr 500 ------- 2 1.0 2.0 179 359
+ 1.9 0 2 cbr 500 ------- 1 0.0 2.0 180 360
d 1.9 0 2 cbr 500 ------- 1 0.0 2.0 180 360
+ 1.9 1 2 cbr 500 ------- 2 1.0 2.0 180 361
d 1.9 1 2 cbr 500 ------- 2 1.0 2.0 180 361
+ 1.91 0 2 cbr 500 ------- 1 0.0 2.0 181 362
d 1.91 0 2 cbr 500 ------- 1 0.0 2.0 181 362
+ 1.91 1 2 cbr 500 ------- 2 1.0 2.0 181 363
d 1.91 1 2 cbr 500 ------- 2 1.0 2.0 181 363
+ 1.92 0 2 cbr 500 ------- 1 0.0 2.0 182 364
d 1.92 0 2 cbr 500 ------- 1 0.0 2.0 182 364
+ 1.92 1 2 cbr 500 ------- 2 1.0 2.0 182 365
d 1.92 1 2 cbr 500 ------- 2 1.0 2.0 182 365
+ 1.93 0 2 cbr 500 ------- 1 0.0 2.0 183 366
d 1.93 0 2 cbr 500 ------- 1 0.0 2.0 183 366
+ 1.93 1 2 cbr 500 ------- 2 1.0 2.0 183 367
d 1.93 1 2 cbr 500 ------- 2 1.0 2.0 183 367
+ 1.94 0 2 cbr 500 ------- 1 0.0 2.0 184 368
d 1.94 0 2 cbr 500 ------- 1 0.0 2.0 184 368
+ 1.94 1 2 cbr 500 ------- 2 1.0 2.0 184 369
d 1.94 1 2 cbr 500 ------- 2 1.0 2.0 184 369
+ 1.95 0 2 cbr 500 ------- 1 0.0 2.0 185 370
d 1.95 0 2 cbr 500 ------- 1 0.0 2.0 185 370
+ 1.95 1 2 cbr 500 ------- 2 1.0 2.0 185 371
d 1.95 1 2 cbr 500 ------- 2 1.0 2.0 185 371
+ 1.96 0 2 cbr 500 ------- 1 0.0 2.0 186 372
d 1.96 0 2 cbr 500 ------- 1 0.0 2.0 186 372
+ 1.96 1 2 cbr 500 ------- 2 1.0 2.0 186 373
d 1.96 1 2 cbr 500 ------- 2 1.0 2.0 186 373
+ 1.97 0 2 cbr 500 ------- 1 0.0 2.0 187 374
d 1.97 0 2 cbr 500 ------- 1 0.0 2.0 187 374
+ 1.97 1 2 cbr 500 ------- 2 1.0 2.0 187 375
d 1.97 1 2 cbr 500 ------- 2 1.0 2.0 187 375
+ 1.98 0 2 cbr 500 ------- 1 0.0 2.0 188 376
d 1.98 0 2 cbr 500 ------- 1 0.0 2.0 188 376
+ 1.98 1 2 cbr 500 ------- 2 1.0 2.0 188 377
d 1.98 1 2 cbr 500 ------- 2 1.0 2.0 188 377
+ 1.99 0 2 cbr 500 ------- 1 0.0 2.0 189 378
d 1.99 0 2 cbr 500 ------- 1 0.0 2.0 189 378
+ 1.99 1 2 cbr 500 ------- 2 1.0 2.0 189 379
d 1.99 1 2 cbr 500 ------- 2 1.0 2.0 189 379
+ 2 0 2 cbr 500 ------- 1 0.0 2.0 190 380
d 2 0 2 cbr 500 ------- 1 0.0 2.0 190 380
+ 2 1 2 cbr 500 ------- 2 1.0 2.0 190 381
d 2 1 2 cbr 500 ------- 2 1.0 2.0 190 381
+ 2.01 0 2 cbr 500 ------- 1 0.0 2.0 191 382
d 2.01 0 2 cbr 500 ------- 1 0.0 2.0 191 382
+ 2.01 1 2 cbr 500 ------- 2 1.0 2.0 191 383
d 2.01 1 2 cbr 500 ------- 2 1.0 2.0 191 383
+ 2.02 0 2 cbr 500 ------- 1 0.0 2.0 192 384